 Entering Gaussian System, Link 0=g16
 Input=PSB4.gjf
 Output=PSB4.log
 Initial command:
 /home/eancedeg/Software/Gaussian09/g09/l1.exe "/home/eancedeg/Software/Gaussian09/scratch/Gau-3999448.inp" -scrdir="/home/eancedeg/Software/Gaussian09/scratch/"
 Entering Link 1 = /home/eancedeg/Software/Gaussian09/g09/l1.exe PID=   3999450.
  
 Copyright (c) 1988,1990,1992,1993,1995,1998,2003,2009,2015,
            Gaussian, Inc.  All Rights Reserved.
  
 This is part of the Gaussian(R) 09 program.  It is based on
 the Gaussian(R) 03 system (copyright 2003, Gaussian, Inc.),
 the Gaussian(R) 98 system (copyright 1998, Gaussian, Inc.),
 the Gaussian(R) 94 system (copyright 1995, Gaussian, Inc.),
 the Gaussian 92(TM) system (copyright 1992, Gaussian, Inc.),
 the Gaussian 90(TM) system (copyright 1990, Gaussian, Inc.),
 the Gaussian 88(TM) system (copyright 1988, Gaussian, Inc.),
 the Gaussian 86(TM) system (copyright 1986, Carnegie Mellon
 University), and the Gaussian 82(TM) system (copyright 1983,
 Carnegie Mellon University). Gaussian is a federally registered
 trademark of Gaussian, Inc.
  
 This software contains proprietary and confidential information,
 including trade secrets, belonging to Gaussian, Inc.
  
 This software is provided under written license and may be
 used, copied, transmitted, or stored only in accord with that
 written license.
  
 The following legend is applicable only to US Government
 contracts under FAR:
  
                    RESTRICTED RIGHTS LEGEND
  
 Use, reproduction and disclosure by the US Government is
 subject to restrictions as set forth in subparagraphs (a)
 and (c) of the Commercial Computer Software - Restricted
 Rights clause in FAR 52.227-19.
  
 Gaussian, Inc.
 340 Quinnipiac St., Bldg. 40, Wallingford CT 06492
  
  
 ---------------------------------------------------------------
 Warning -- This program may not be used in any manner that
 competes with the business of Gaussian, Inc. or will provide
 assistance to any competitor of Gaussian, Inc.  The licensee
 of this program is prohibited from giving any competitor of
 Gaussian, Inc. access to this program.  By using this program,
 the user acknowledges that Gaussian, Inc. is engaged in the
 business of creating and licensing software in the field of
 computational chemistry and represents and warrants to the
 licensee that it is not a competitor of Gaussian, Inc. and that
 it will not use this program in any manner prohibited above.
 ---------------------------------------------------------------
  

 Cite this work as:
 Gaussian 09, Revision E.01,
 M. J. Frisch, G. W. Trucks, H. B. Schlegel, G. E. Scuseria, 
 M. A. Robb, J. R. Cheeseman, G. Scalmani, V. Barone, B. Mennucci, 
 G. A. Petersson, H. Nakatsuji, M. Caricato, X. Li, H. P. Hratchian, 
 A. F. Izmaylov, J. Bloino, G. Zheng, J. L. Sonnenberg, M. Hada, 
 M. Ehara, K. Toyota, R. Fukuda, J. Hasegawa, M. Ishida, T. Nakajima, 
 Y. Honda, O. Kitao, H. Nakai, T. Vreven, J. A. Montgomery, Jr., 
 J. E. Peralta, F. Ogliaro, M. Bearpark, J. J. Heyd, E. Brothers, 
 K. N. Kudin, V. N. Staroverov, T. Keith, R. Kobayashi, J. Normand, 
 K. Raghavachari, A. Rendell, J. C. Burant, S. S. Iyengar, J. Tomasi, 
 M. Cossi, N. Rega, J. M. Millam, M. Klene, J. E. Knox, J. B. Cross, 
 V. Bakken, C. Adamo, J. Jaramillo, R. Gomperts, R. E. Stratmann, 
 O. Yazyev, A. J. Austin, R. Cammi, C. Pomelli, J. W. Ochterski, 
 R. L. Martin, K. Morokuma, V. G. Zakrzewski, G. A. Voth, 
 P. Salvador, J. J. Dannenberg, S. Dapprich, A. D. Daniels, 
 O. Farkas, J. B. Foresman, J. V. Ortiz, J. Cioslowski, 
 and D. J. Fox, Gaussian, Inc., Wallingford CT, 2013.
 
 ******************************************
 Gaussian 09:  ES64L-G09RevE.01 30-Nov-2015
                16-Nov-2025 
 ******************************************
 %nprocshared=12
 Will use up to   12 processors via shared memory.
 %chk=PSB4.chk
 ------------------------------------------
 # opt freq b3lyp/lanl2dz geom=connectivity
 ------------------------------------------
 1/14=-1,18=20,19=15,26=3,38=1,57=2/1,3;
 2/9=110,12=2,17=6,18=5,40=1/2;
 3/5=6,6=3,11=2,16=1,25=1,30=1,71=1,74=-5/1,2,3;
 4//1;
 5/5=2,38=5/2;
 6/7=2,8=2,9=2,10=2,28=1/1;
 7//1,2,3,16;
 1/14=-1,18=20,19=15,26=3/3(2);
 2/9=110/2;
 99//99;
 2/9=110/2;
 3/5=6,6=3,11=2,16=1,25=1,30=1,71=1,74=-5/1,2,3;
 4/5=5,16=3,69=1/1;
 5/5=2,38=5/2;
 7//1,2,3,16;
 1/14=-1,18=20,19=15,26=3/3(-5);
 2/9=110/2;
 6/7=2,8=2,9=2,10=2,19=2,28=1/1;
 99/9=1/99;
 ---------
 PSB4-freq
 ---------
 Symbolic Z-matrix:
 Charge =  0 Multiplicity = 1
 C                    -2.8892   -1.4109   -0.417 
 C                    -3.9972   -2.2593   -0.3123 
 C                    -3.8616   -3.4847    0.316 
 N                    -2.724    -3.9225    0.8638 
 C                    -1.6696   -3.1192    0.7692 
 C                    -1.6746   -1.8749    0.1362 
 H                    -4.9515   -1.963    -0.7296 
 H                    -4.7157   -4.149     0.3895 
 H                    -2.1768    0.4222   -0.9686 
 H                    -0.7611   -3.453     1.2612 
 N                    -0.5566   -1.0301    0.0986 
 N                    -2.9475   -0.2141   -1.0778 
 H                    -3.8477    0.205    -1.2301 
 C                     0.628    -1.4929   -0.0885 
 C                     1.8143   -0.658    -0.0473 
 C                     3.0625   -1.2389   -0.3084 
 C                     4.2063   -0.4683   -0.2827 
 C                     4.1357    0.8937    0.0039 
 C                     2.9088    1.482     0.2672 
 C                     1.729     0.7266    0.2474 
 H                     3.123    -2.2954   -0.5317 
 Cl                    5.7596   -1.1934   -0.6116 
 H                     5.0386    1.4857    0.0202 
 I                     2.8143    3.5395    0.699 
 O                     0.5563    1.3112    0.5035 
 H                     0.7886   -2.553    -0.3011 
 H                    -0.1401    0.6042    0.4525 
 

 GradGradGradGradGradGradGradGradGradGradGradGradGradGradGradGradGradGrad
 Berny optimization.
 Initialization pass.
                           ----------------------------
                           !    Initial Parameters    !
                           ! (Angstroms and Degrees)  !
 --------------------------                            --------------------------
 ! Name  Definition              Value          Derivative Info.                !
 --------------------------------------------------------------------------------
 ! R1    R(1,2)                  1.3994         estimate D2E/DX2                !
 ! R2    R(1,6)                  1.413          estimate D2E/DX2                !
 ! R3    R(1,12)                 1.3684         estimate D2E/DX2                !
 ! R4    R(2,3)                  1.3837         estimate D2E/DX2                !
 ! R5    R(2,7)                  1.0829         estimate D2E/DX2                !
 ! R6    R(3,4)                  1.3364         estimate D2E/DX2                !
 ! R7    R(3,8)                  1.0845         estimate D2E/DX2                !
 ! R8    R(4,5)                  1.3289         estimate D2E/DX2                !
 ! R9    R(5,6)                  1.3961         estimate D2E/DX2                !
 ! R10   R(5,10)                 1.0858         estimate D2E/DX2                !
 ! R11   R(6,11)                 1.4018         estimate D2E/DX2                !
 ! R12   R(9,12)                 1.0054         estimate D2E/DX2                !
 ! R13   R(11,14)                1.2855         estimate D2E/DX2                !
 ! R14   R(12,13)                1.0046         estimate D2E/DX2                !
 ! R15   R(14,15)                1.4512         estimate D2E/DX2                !
 ! R16   R(14,26)                1.0931         estimate D2E/DX2                !
 ! R17   R(15,16)                1.4013         estimate D2E/DX2                !
 ! R18   R(15,20)                1.4182         estimate D2E/DX2                !
 ! R19   R(16,17)                1.3794         estimate D2E/DX2                !
 ! R20   R(16,21)                1.0815         estimate D2E/DX2                !
 ! R21   R(17,18)                1.3936         estimate D2E/DX2                !
 ! R22   R(17,22)                1.7455         estimate D2E/DX2                !
 ! R23   R(18,19)                1.3859         estimate D2E/DX2                !
 ! R24   R(18,23)                1.0798         estimate D2E/DX2                !
 ! R25   R(19,20)                1.4011         estimate D2E/DX2                !
 ! R26   R(19,24)                2.1044         estimate D2E/DX2                !
 ! R27   R(20,25)                1.3351         estimate D2E/DX2                !
 ! R28   R(25,27)                0.9937         estimate D2E/DX2                !
 ! A1    A(2,1,6)              116.8855         estimate D2E/DX2                !
 ! A2    A(2,1,12)             122.1838         estimate D2E/DX2                !
 ! A3    A(6,1,12)             120.8571         estimate D2E/DX2                !
 ! A4    A(1,2,3)              119.5547         estimate D2E/DX2                !
 ! A5    A(1,2,7)              120.2004         estimate D2E/DX2                !
 ! A6    A(3,2,7)              120.2416         estimate D2E/DX2                !
 ! A7    A(2,3,4)              124.0323         estimate D2E/DX2                !
 ! A8    A(2,3,8)              119.7379         estimate D2E/DX2                !
 ! A9    A(4,3,8)              116.2285         estimate D2E/DX2                !
 ! A10   A(3,4,5)              116.6287         estimate D2E/DX2                !
 ! A11   A(4,5,6)              124.6251         estimate D2E/DX2                !
 ! A12   A(4,5,10)             116.4749         estimate D2E/DX2                !
 ! A13   A(6,5,10)             118.8472         estimate D2E/DX2                !
 ! A14   A(1,6,5)              118.2471         estimate D2E/DX2                !
 ! A15   A(1,6,11)             118.5003         estimate D2E/DX2                !
 ! A16   A(5,6,11)             123.1237         estimate D2E/DX2                !
 ! A17   A(6,11,14)            121.4594         estimate D2E/DX2                !
 ! A18   A(1,12,9)             117.9329         estimate D2E/DX2                !
 ! A19   A(1,12,13)            118.4423         estimate D2E/DX2                !
 ! A20   A(9,12,13)            116.0626         estimate D2E/DX2                !
 ! A21   A(11,14,15)           122.8226         estimate D2E/DX2                !
 ! A22   A(11,14,26)           120.8548         estimate D2E/DX2                !
 ! A23   A(15,14,26)           116.3192         estimate D2E/DX2                !
 ! A24   A(14,15,16)           118.9704         estimate D2E/DX2                !
 ! A25   A(14,15,20)           121.226          estimate D2E/DX2                !
 ! A26   A(16,15,20)           119.8034         estimate D2E/DX2                !
 ! A27   A(15,16,17)           120.2352         estimate D2E/DX2                !
 ! A28   A(15,16,21)           119.5543         estimate D2E/DX2                !
 ! A29   A(17,16,21)           120.2104         estimate D2E/DX2                !
 ! A30   A(16,17,18)           120.5172         estimate D2E/DX2                !
 ! A31   A(16,17,22)           120.1537         estimate D2E/DX2                !
 ! A32   A(18,17,22)           119.3291         estimate D2E/DX2                !
 ! A33   A(17,18,19)           119.9192         estimate D2E/DX2                !
 ! A34   A(17,18,23)           119.7725         estimate D2E/DX2                !
 ! A35   A(19,18,23)           120.3082         estimate D2E/DX2                !
 ! A36   A(18,19,20)           120.9252         estimate D2E/DX2                !
 ! A37   A(18,19,24)           119.5878         estimate D2E/DX2                !
 ! A38   A(20,19,24)           119.4869         estimate D2E/DX2                !
 ! A39   A(15,20,19)           118.5996         estimate D2E/DX2                !
 ! A40   A(15,20,25)           121.3444         estimate D2E/DX2                !
 ! A41   A(19,20,25)           120.0559         estimate D2E/DX2                !
 ! A42   A(20,25,27)           107.1086         estimate D2E/DX2                !
 ! D1    D(6,1,2,3)              0.1746         estimate D2E/DX2                !
 ! D2    D(6,1,2,7)           -179.1762         estimate D2E/DX2                !
 ! D3    D(12,1,2,3)           177.0773         estimate D2E/DX2                !
 ! D4    D(12,1,2,7)            -2.2735         estimate D2E/DX2                !
 ! D5    D(2,1,6,5)             -1.4449         estimate D2E/DX2                !
 ! D6    D(2,1,6,11)          -177.4473         estimate D2E/DX2                !
 ! D7    D(12,1,6,5)          -178.3913         estimate D2E/DX2                !
 ! D8    D(12,1,6,11)            5.6063         estimate D2E/DX2                !
 ! D9    D(2,1,12,9)           168.6029         estimate D2E/DX2                !
 ! D10   D(2,1,12,13)           20.0919         estimate D2E/DX2                !
 ! D11   D(6,1,12,9)           -14.6153         estimate D2E/DX2                !
 ! D12   D(6,1,12,13)         -163.1263         estimate D2E/DX2                !
 ! D13   D(1,2,3,4)              1.0859         estimate D2E/DX2                !
 ! D14   D(1,2,3,8)           -179.352          estimate D2E/DX2                !
 ! D15   D(7,2,3,4)           -179.5635         estimate D2E/DX2                !
 ! D16   D(7,2,3,8)             -0.0014         estimate D2E/DX2                !
 ! D17   D(2,3,4,5)             -0.9292         estimate D2E/DX2                !
 ! D18   D(8,3,4,5)            179.4946         estimate D2E/DX2                !
 ! D19   D(3,4,5,6)             -0.5043         estimate D2E/DX2                !
 ! D20   D(3,4,5,10)           176.8107         estimate D2E/DX2                !
 ! D21   D(4,5,6,1)              1.7048         estimate D2E/DX2                !
 ! D22   D(4,5,6,11)           177.5096         estimate D2E/DX2                !
 ! D23   D(10,5,6,1)          -175.5512         estimate D2E/DX2                !
 ! D24   D(10,5,6,11)            0.2536         estimate D2E/DX2                !
 ! D25   D(1,6,11,14)         -143.7238         estimate D2E/DX2                !
 ! D26   D(5,6,11,14)           40.4814         estimate D2E/DX2                !
 ! D27   D(6,11,14,15)        -175.924          estimate D2E/DX2                !
 ! D28   D(6,11,14,26)           4.7743         estimate D2E/DX2                !
 ! D29   D(11,14,15,16)       -177.8198         estimate D2E/DX2                !
 ! D30   D(11,14,15,20)          2.0095         estimate D2E/DX2                !
 ! D31   D(26,14,15,16)          1.5115         estimate D2E/DX2                !
 ! D32   D(26,14,15,20)       -178.6593         estimate D2E/DX2                !
 ! D33   D(14,15,16,17)        179.6795         estimate D2E/DX2                !
 ! D34   D(14,15,16,21)         -0.2303         estimate D2E/DX2                !
 ! D35   D(20,15,16,17)         -0.1522         estimate D2E/DX2                !
 ! D36   D(20,15,16,21)        179.9379         estimate D2E/DX2                !
 ! D37   D(14,15,20,19)       -179.7398         estimate D2E/DX2                !
 ! D38   D(14,15,20,25)          0.309          estimate D2E/DX2                !
 ! D39   D(16,15,20,19)          0.088          estimate D2E/DX2                !
 ! D40   D(16,15,20,25)       -179.8631         estimate D2E/DX2                !
 ! D41   D(15,16,17,18)          0.0714         estimate D2E/DX2                !
 ! D42   D(15,16,17,22)       -179.8695         estimate D2E/DX2                !
 ! D43   D(21,16,17,18)        179.9807         estimate D2E/DX2                !
 ! D44   D(21,16,17,22)          0.0398         estimate D2E/DX2                !
 ! D45   D(16,17,18,19)          0.074          estimate D2E/DX2                !
 ! D46   D(16,17,18,23)       -179.9611         estimate D2E/DX2                !
 ! D47   D(22,17,18,19)       -179.9846         estimate D2E/DX2                !
 ! D48   D(22,17,18,23)         -0.0197         estimate D2E/DX2                !
 ! D49   D(17,18,19,20)         -0.1383         estimate D2E/DX2                !
 ! D50   D(17,18,19,24)        179.9919         estimate D2E/DX2                !
 ! D51   D(23,18,19,20)        179.8969         estimate D2E/DX2                !
 ! D52   D(23,18,19,24)          0.0271         estimate D2E/DX2                !
 ! D53   D(18,19,20,15)          0.0566         estimate D2E/DX2                !
 ! D54   D(18,19,20,25)       -179.9916         estimate D2E/DX2                !
 ! D55   D(24,19,20,15)        179.9265         estimate D2E/DX2                !
 ! D56   D(24,19,20,25)         -0.1217         estimate D2E/DX2                !
 ! D57   D(15,20,25,27)          0.8081         estimate D2E/DX2                !
 ! D58   D(19,20,25,27)       -179.1423         estimate D2E/DX2                !
 --------------------------------------------------------------------------------
 Trust Radius=3.00D-01 FncErr=1.00D-07 GrdErr=1.00D-06
 Number of steps in this run=    138 maximum allowed number of steps=    162.
 GradGradGradGradGradGradGradGradGradGradGradGradGradGradGradGradGradGrad

                          Input orientation:                          
 ---------------------------------------------------------------------
 Center     Atomic      Atomic             Coordinates (Angstroms)
 Number     Number       Type             X           Y           Z
 ---------------------------------------------------------------------
      1          6           0       -2.889200   -1.410900   -0.417000
      2          6           0       -3.997200   -2.259300   -0.312300
      3          6           0       -3.861600   -3.484700    0.316000
      4          7           0       -2.724000   -3.922500    0.863800
      5          6           0       -1.669600   -3.119200    0.769200
      6          6           0       -1.674600   -1.874900    0.136200
      7          1           0       -4.951500   -1.963000   -0.729600
      8          1           0       -4.715700   -4.149000    0.389500
      9          1           0       -2.176800    0.422200   -0.968600
     10          1           0       -0.761100   -3.453000    1.261200
     11          7           0       -0.556600   -1.030100    0.098600
     12          7           0       -2.947500   -0.214100   -1.077800
     13          1           0       -3.847700    0.205000   -1.230100
     14          6           0        0.628000   -1.492900   -0.088500
     15          6           0        1.814300   -0.658000   -0.047300
     16          6           0        3.062500   -1.238900   -0.308400
     17          6           0        4.206300   -0.468300   -0.282700
     18          6           0        4.135700    0.893700    0.003900
     19          6           0        2.908800    1.482000    0.267200
     20          6           0        1.729000    0.726600    0.247400
     21          1           0        3.123000   -2.295400   -0.531700
     22         17           0        5.759600   -1.193400   -0.611600
     23          1           0        5.038600    1.485700    0.020200
     24         53           0        2.814300    3.539500    0.699000
     25          8           0        0.556300    1.311200    0.503500
     26          1           0        0.788600   -2.553000   -0.301100
     27          1           0       -0.140100    0.604200    0.452500
 ---------------------------------------------------------------------
                    Distance matrix (angstroms):
                    1          2          3          4          5
     1  C    0.000000
     2  C    1.399432   0.000000
     3  C    2.404890   1.383746   0.000000
     4  N    2.824159   2.402183   1.336371   0.000000
     5  C    2.410971   2.706805   2.268005   1.328909   0.000000
     6  C    1.413004   2.396536   2.721535   2.413153   1.396065
     7  H    2.157687   1.082876   2.143999   3.367539   3.788676
     8  H    3.388766   2.140031   1.084520   2.059886   3.237806
     9  H    2.042555   3.306815   4.444392   4.746950   3.977275
    10  H    3.393426   3.791196   3.241529   2.057021   1.085753
    11  N    2.419065   3.676615   4.122542   3.694473   2.460246
    12  N    1.368351   2.422953   3.670842   4.191896   3.672063
    13  H    2.047190   2.633910   4.000563   4.762707   4.448778
    14  C    3.533459   4.693605   4.928224   4.248027   2.942697
    15  C    4.777703   6.033897   6.351225   5.664206   4.343010
    16  C    5.955175   7.133064   7.305933   6.485318   5.204759
    17  C    7.159096   8.396783   8.634125   7.827836   6.531460
    18  C    7.405239   8.728428   9.122752   8.425598   7.098631
    19  C    6.515658   7.875658   8.396952   7.828984   6.510360
    20  C    5.132066   6.482147   6.999612   6.467093   5.158773
    21  H    6.077997   7.123671   7.135662   6.227542   5.033885
    22  Cl   8.653723   9.819413   9.933679   9.033065   7.797969
    23  H    8.451713   9.786790  10.198330   9.498329   8.171050
    24  I    7.634254   9.002519   9.698129   9.294158   8.027987
    25  O    4.486493   5.843660   6.523316   6.187229   4.965246
    26  H    3.852796   4.794817   4.782597   3.945996   2.740232
    27  H    3.517699   4.864337   5.530578   5.228453   4.037744
                    6          7          8          9         10
     6  C    0.000000
     7  H    3.390493   0.000000
     8  H    3.805783   2.467100   0.000000
     9  H    2.597972   3.666778   5.402436   0.000000
    10  H    2.142547   4.872662   4.108910   4.689711   0.000000
    11  N    1.401793   4.568519   5.206753   2.423456   2.695163
    12  N    2.419158   2.682519   4.556637   1.005376   4.554310
    13  H    3.303804   2.483767   4.725870   1.705129   5.395798
    14  C    2.344863   5.635852   5.986525   3.508431   2.755591
    15  C    3.699587   6.924204   7.417464   4.236095   4.019562
    16  C    4.800238   8.057663   8.334035   5.535827   4.688902
    17  C    6.061269   9.289734   9.674786   6.481313   5.997260
    18  C    6.437564   9.553845  10.194351   6.404352   6.667327
    19  C    5.682737   8.639789   9.479247   5.339823   6.229802
    20  C    4.285401   7.267569   8.082439   4.102023   4.969652
    21  H    4.862086   8.083762   8.107383   5.971944   4.431790
    22  Cl   7.502731  10.739361  10.930219   8.107038   7.150713
    23  H    7.508272  10.595180  11.270874   7.360078   7.717989
    24  I    7.055685   9.624243  10.766138   6.116333   7.873666
    25  O    3.906796   6.525089   7.590834   3.229123   5.000725
    26  H    2.591989   5.786230   5.772475   4.253348   2.377467
    27  H    2.932690   5.580094   6.597954   2.490140   4.183361
                   11         12         13         14         15
    11  N    0.000000
    12  N    2.786786   0.000000
    13  H    3.757959   1.004590   0.000000
    14  C    1.285483   3.924060   4.921179   0.000000
    15  C    2.404353   4.892210   5.848250   1.451228   0.000000
    16  C    3.647894   6.145103   7.119357   2.457572   1.401293
    17  C    4.811052   7.202337   8.137433   3.727164   2.411030
    18  C    5.072243   7.250450   8.107511   4.243625   2.792721
    19  C    4.283465   6.243559   7.037253   3.765448   2.424137
    20  C    2.886538   4.950831   5.792638   2.500242   1.418182
    21  H    3.941791   6.440575   7.438442   2.658093   2.151376
    22  Cl   6.358100   8.774392   9.728221   5.166880   4.021254
    23  H    6.135280   8.238490   9.064754   5.323276   3.872482
    24  I    5.710052   7.102455   7.695620   5.543024   4.379038
    25  O    2.623771   4.135658   4.860480   2.866807   2.400769
    26  H    2.070881   4.475730   5.474019   1.093071   2.169677
    27  H    1.723268   3.300444   4.091064   2.297931   2.379628
                   16         17         18         19         20
    16  C    0.000000
    17  C    1.379407   0.000000
    18  C    2.407753   1.393617   0.000000
    19  C    2.785361   2.406152   1.385896   0.000000
    20  C    2.439329   2.801037   2.424751   1.401053   0.000000
    21  H    1.081534   2.138652   3.388626   3.866895   3.417999
    22  Cl   2.714470   1.745476   2.715120   4.007133   4.546429
    23  H    3.381774   2.145364   1.079795   2.144078   3.403132
    24  I    4.889741   4.354751   3.038012   2.104445   3.048643
    25  O    3.666501   4.136089   3.638133   2.370499   1.335129
    26  H    2.626316   4.003372   4.814130   4.593412   3.455572
    27  H    3.772616   4.536735   4.309004   3.178154   1.884299
                   21         22         23         24         25
    21  H    0.000000
    22  Cl   2.858749   0.000000
    23  H    4.274440   2.845451   0.000000
    24  I    5.971263   5.726500   3.102640   0.000000
    25  O    4.546114   5.881394   4.511656   3.178381   0.000000
    26  H    2.359864   5.162922   5.871697   6.497862   3.953908
    27  H    4.474835   6.258605   5.270945   4.171957   0.993692
                   26         27
    26  H    0.000000
    27  H    3.376138   0.000000
 Stoichiometry    C12H9ClIN3O
 Framework group  C1[X(C12H9ClIN3O)]
 Deg. of freedom    75
 Full point group                 C1      NOp   1
 Largest Abelian subgroup         C1      NOp   1
 Largest concise Abelian subgroup C1      NOp   1
                         Standard orientation:                         
 ---------------------------------------------------------------------
 Center     Atomic      Atomic             Coordinates (Angstroms)
 Number     Number       Type             X           Y           Z
 ---------------------------------------------------------------------
      1          6           0       -4.376286   -0.986391    0.567908
      2          6           0       -5.766541   -0.972257    0.408541
      3          6           0       -6.352615   -0.002999   -0.386324
      4          7           0       -5.668970    0.935218   -1.048341
      5          6           0       -4.348165    0.924299   -0.902214
      6          6           0       -3.645515    0.017054   -0.107112
      7          1           0       -6.380107   -1.708595    0.912491
      8          1           0       -7.430605    0.017146   -0.503438
      9          1           0       -2.744851   -1.955339    1.323945
     10          1           0       -3.790912    1.653244   -1.482703
     11          7           0       -2.246820    0.002191   -0.015151
     12          7           0       -3.745641   -1.882987    1.386924
     13          1           0       -4.233685   -2.723059    1.642448
     14          6           0       -1.566762    1.091452    0.044001
     15          6           0       -0.115727    1.113365    0.053013
     16          6           0        0.543796    2.344579    0.165980
     17          6           0        1.922160    2.395142    0.183885
     18          6           0        2.674498    1.225919    0.088639
     19          6           0        2.036629    0.000953   -0.026639
     20          6           0        0.638272   -0.083650   -0.046399
     21          1           0       -0.035186    3.255039    0.240530
     22         17           0        2.741450    3.929630    0.328102
     23          1           0        3.752851    1.279410    0.104510
     24         53           0        3.182934   -1.758056   -0.170031
     25          8           0        0.041819   -1.272923   -0.157949
     26          1           0       -2.066478    2.061868    0.102132
     27          1           0       -0.938197   -1.108833   -0.166096
 ---------------------------------------------------------------------
 Rotational constants (GHZ):      0.3775482      0.1203976      0.0938725
 Standard basis: LANL2DZ (5D, 7F)
 There are   178 symmetry adapted cartesian basis functions of A   symmetry.
 There are   178 symmetry adapted basis functions of A   symmetry.
   178 basis functions,   460 primitive gaussians,   178 cartesian basis functions
    62 alpha electrons       62 beta electrons
       nuclear repulsion energy      1132.6108290008 Hartrees.
 NAtoms=   27 NActive=   27 NUniq=   27 SFac= 1.00D+00 NAtFMM=   60 NAOKFM=F Big=F
 Integral buffers will be    131072 words long.
 Raffenetti 2 integral format.
 Two-electron integral symmetry is turned on.
 One-electron integrals computed using PRISM.
 PrsmSu:  requested number of processors reduced to:   9 ShMem   1 Linda.
   1 Symmetry operations used in ECPInt.
 ECPInt:  NShTT=    5671 NPrTT=   42095 LenC2=    5330 LenP2D=   24389.
 LDataN:  DoStor=T MaxTD1= 4 Len=   56
 Number of processors reduced to  11 by ecpmxn.
 NBasis=   178 RedAO= T EigKep=  4.40D-04  NBF=   178
 NBsUse=   178 1.00D-06 EigRej= -1.00D+00 NBFU=   178
 Defaulting to unpruned grid for atomic number  53.
 ExpMin= 1.05D-01 ExpMax= 7.82D+03 ExpMxC= 2.73D+02 IAcc=1 IRadAn=         1 AccDes= 0.00D+00
 Harris functional with IExCor=  402 and IRadAn=       1 diagonalized for initial guess.
 HarFok:  IExCor=  402 AccDes= 0.00D+00 IRadAn=         1 IDoV= 1 UseB2=F ITyADJ=14
 ICtDFT=  3500011 ScaDFX=  1.000000  1.000000  1.000000  1.000000
 Defaulting to unpruned grid for atomic number  53.
 Defaulting to unpruned grid for atomic number  53.
 Defaulting to unpruned grid for atomic number  53.
 Defaulting to unpruned grid for atomic number  53.
 Defaulting to unpruned grid for atomic number  53.
 Defaulting to unpruned grid for atomic number  53.
 Defaulting to unpruned grid for atomic number  53.
 Defaulting to unpruned grid for atomic number  53.
 Defaulting to unpruned grid for atomic number  53.
 Defaulting to unpruned grid for atomic number  53.
 Defaulting to unpruned grid for atomic number  53.
 Defaulting to unpruned grid for atomic number  53.
 FoFCou: FMM=F IPFlag=           0 FMFlag=      100000 FMFlg1=           0
         NFxFlg=           0 DoJE=T BraDBF=F KetDBF=T FulRan=T
         wScrn=  0.000000 ICntrl=     500 IOpCl=  0 I1Cent=   200000004 NGrid=           0
         NMat0=    1 NMatS0=      1 NMatT0=    0 NMatD0=    1 NMtDS0=    0 NMtDT0=    0
 Petite list used in FoFCou.
 Requested convergence on RMS density matrix=1.00D-08 within 128 cycles.
 Requested convergence on MAX density matrix=1.00D-06.
 Requested convergence on             energy=1.00D-06.
 No special actions if energy rises.
 Integral accuracy reduced to 1.0D-05 until final iterations.
 Defaulting to unpruned grid for atomic number  53.
 Defaulting to unpruned grid for atomic number  53.
 Defaulting to unpruned grid for atomic number  53.
 Defaulting to unpruned grid for atomic number  53.
 Defaulting to unpruned grid for atomic number  53.
 Defaulting to unpruned grid for atomic number  53.
 Defaulting to unpruned grid for atomic number  53.
 Defaulting to unpruned grid for atomic number  53.
 Defaulting to unpruned grid for atomic number  53.
 Defaulting to unpruned grid for atomic number  53.
 Defaulting to unpruned grid for atomic number  53.
 Defaulting to unpruned grid for atomic number  53.
 Initial convergence to 1.0D-05 achieved.  Increase integral accuracy.
 SCF Done:  E(RB3LYP) =  -728.369818031     A.U. after   16 cycles
            NFock= 16  Conv=0.66D-08     -V/T= 2.0290

 **********************************************************************

            Population analysis using the SCF density.

 **********************************************************************

 Orbital symmetries:
       Occupied  (A) (A) (A) (A) (A) (A) (A) (A) (A) (A) (A) (A)
                 (A) (A) (A) (A) (A) (A) (A) (A) (A) (A) (A) (A)
                 (A) (A) (A) (A) (A) (A) (A) (A) (A) (A) (A) (A)
                 (A) (A) (A) (A) (A) (A) (A) (A) (A) (A) (A) (A)
                 (A) (A) (A) (A) (A) (A) (A) (A) (A) (A) (A) (A)
                 (A) (A)
       Virtual   (A) (A) (A) (A) (A) (A) (A) (A) (A) (A) (A) (A)
                 (A) (A) (A) (A) (A) (A) (A) (A) (A) (A) (A) (A)
                 (A) (A) (A) (A) (A) (A) (A) (A) (A) (A) (A) (A)
                 (A) (A) (A) (A) (A) (A) (A) (A) (A) (A) (A) (A)
                 (A) (A) (A) (A) (A) (A) (A) (A) (A) (A) (A) (A)
                 (A) (A) (A) (A) (A) (A) (A) (A) (A) (A) (A) (A)
                 (A) (A) (A) (A) (A) (A) (A) (A) (A) (A) (A) (A)
                 (A) (A) (A) (A) (A) (A) (A) (A) (A) (A) (A) (A)
                 (A) (A) (A) (A) (A) (A) (A) (A) (A) (A) (A) (A)
                 (A) (A) (A) (A) (A) (A) (A) (A)
 The electronic state is 1-A.
 Alpha  occ. eigenvalues --  -19.17710 -14.37704 -14.36431 -14.33246 -10.29647
 Alpha  occ. eigenvalues --  -10.27903 -10.27419 -10.26873 -10.25343 -10.25003
 Alpha  occ. eigenvalues --  -10.23959 -10.23953 -10.23596 -10.23549 -10.23370
 Alpha  occ. eigenvalues --  -10.21072  -1.10084  -0.99921  -0.96588  -0.94955
 Alpha  occ. eigenvalues --   -0.92214  -0.86511  -0.82438  -0.80087  -0.78237
 Alpha  occ. eigenvalues --   -0.75747  -0.70475  -0.69843  -0.66413  -0.64576
 Alpha  occ. eigenvalues --   -0.62345  -0.61305  -0.57929  -0.56271  -0.55586
 Alpha  occ. eigenvalues --   -0.54121  -0.51138  -0.50252  -0.48883  -0.47958
 Alpha  occ. eigenvalues --   -0.46431  -0.46195  -0.45538  -0.44731  -0.43589
 Alpha  occ. eigenvalues --   -0.41615  -0.40274  -0.39935  -0.39361  -0.38386
 Alpha  occ. eigenvalues --   -0.37025  -0.36304  -0.33423  -0.32865  -0.32260
 Alpha  occ. eigenvalues --   -0.31017  -0.27589  -0.26768  -0.26213  -0.25181
 Alpha  occ. eigenvalues --   -0.24148  -0.23254
 Alpha virt. eigenvalues --   -0.09177  -0.03772  -0.02929  -0.02297  -0.01524
 Alpha virt. eigenvalues --    0.01369   0.04200   0.07083   0.10486   0.11791
 Alpha virt. eigenvalues --    0.12459   0.13177   0.13751   0.14588   0.15924
 Alpha virt. eigenvalues --    0.17019   0.17228   0.17887   0.19047   0.19740
 Alpha virt. eigenvalues --    0.21230   0.22017   0.22720   0.23786   0.25056
 Alpha virt. eigenvalues --    0.25907   0.26769   0.27399   0.27528   0.28360
 Alpha virt. eigenvalues --    0.28977   0.29428   0.31562   0.32267   0.33172
 Alpha virt. eigenvalues --    0.34090   0.34773   0.35527   0.35637   0.36039
 Alpha virt. eigenvalues --    0.36902   0.38084   0.38521   0.39173   0.39431
 Alpha virt. eigenvalues --    0.40177   0.40681   0.41343   0.41886   0.42228
 Alpha virt. eigenvalues --    0.42336   0.43718   0.44017   0.45264   0.45517
 Alpha virt. eigenvalues --    0.45748   0.46604   0.48501   0.48968   0.51768
 Alpha virt. eigenvalues --    0.52695   0.52904   0.53789   0.53936   0.55498
 Alpha virt. eigenvalues --    0.57277   0.58006   0.60663   0.62335   0.63200
 Alpha virt. eigenvalues --    0.63820   0.66806   0.68286   0.68790   0.69098
 Alpha virt. eigenvalues --    0.70175   0.71167   0.71338   0.73196   0.74045
 Alpha virt. eigenvalues --    0.75402   0.76835   0.78597   0.82068   0.84913
 Alpha virt. eigenvalues --    0.86332   0.88925   0.92766   0.98215   0.99535
 Alpha virt. eigenvalues --    1.01637   1.04413   1.06634   1.09725   1.11656
 Alpha virt. eigenvalues --    1.13175   1.14012   1.15159   1.16707   1.18621
 Alpha virt. eigenvalues --    1.21777   1.26734   1.30445   1.33575   1.34301
 Alpha virt. eigenvalues --    1.39485   1.42441   1.43566   1.44789   1.54809
 Alpha virt. eigenvalues --    1.64066   1.70245   1.75749   1.97082  10.80924
 Alpha virt. eigenvalues --   11.55336
          Condensed to atoms (all electrons):
               1          2          3          4          5          6
     1  C    4.761860   0.490343  -0.077784  -0.031985  -0.071669   0.443980
     2  C    0.490343   5.360149   0.379052  -0.054642  -0.043663  -0.030035
     3  C   -0.077784   0.379052   5.470438   0.542092  -0.288769  -0.032534
     4  N   -0.031985  -0.054642   0.542092   6.133526   0.495591  -0.041141
     5  C   -0.071669  -0.043663  -0.288769   0.495591   5.763995   0.244675
     6  C    0.443980  -0.030035  -0.032534  -0.041141   0.244675   5.188725
     7  H   -0.009628   0.288779  -0.001338   0.003430   0.002811  -0.000217
     8  H    0.002226  -0.063636   0.335265  -0.030876   0.010385  -0.002372
     9  H   -0.020936   0.003686  -0.000174  -0.000006   0.001292  -0.007322
    10  H    0.000561  -0.002182   0.009929  -0.031419   0.328703  -0.067838
    11  N   -0.031805   0.001933   0.001841   0.006932  -0.023139   0.289133
    12  N    0.334493  -0.039518   0.000345   0.000211   0.001336  -0.056330
    13  H   -0.021923  -0.005177   0.000744   0.000016  -0.000100   0.004523
    14  C   -0.021578  -0.001958   0.000555  -0.000068   0.012859  -0.160179
    15  C    0.000004  -0.000007  -0.000003   0.000011  -0.000007  -0.001229
    16  C    0.000170  -0.000000   0.000004  -0.000004   0.000627   0.002076
    17  C    0.000006  -0.000000   0.000000  -0.000000   0.000022   0.000031
    18  C   -0.000002  -0.000000  -0.000000   0.000000   0.000001  -0.000010
    19  C   -0.000045  -0.000000  -0.000000   0.000000   0.000004  -0.000487
    20  C   -0.001116  -0.000019  -0.000005   0.000003   0.000037  -0.005012
    21  H    0.000002   0.000000   0.000000  -0.000000  -0.000036   0.000250
    22  Cl   0.000000  -0.000000  -0.000000  -0.000000   0.000000  -0.000000
    23  H    0.000000  -0.000000  -0.000000   0.000000   0.000000  -0.000000
    24  I   -0.000000  -0.000000  -0.000000   0.000000   0.000000  -0.000011
    25  O    0.000048   0.000000  -0.000001   0.000000  -0.000205   0.001390
    26  H    0.000513   0.000003   0.000217  -0.000068   0.013809  -0.002594
    27  H    0.000783   0.000049   0.000008   0.000000   0.000629  -0.002070
               7          8          9         10         11         12
     1  C   -0.009628   0.002226  -0.020936   0.000561  -0.031805   0.334493
     2  C    0.288779  -0.063636   0.003686  -0.002182   0.001933  -0.039518
     3  C   -0.001338   0.335265  -0.000174   0.009929   0.001841   0.000345
     4  N    0.003430  -0.030876  -0.000006  -0.031419   0.006932   0.000211
     5  C    0.002811   0.010385   0.001292   0.328703  -0.023139   0.001336
     6  C   -0.000217  -0.002372  -0.007322  -0.067838   0.289133  -0.056330
     7  H    0.488755   0.003642  -0.000031   0.000011  -0.000004  -0.004545
     8  H    0.003642   0.507536   0.000002   0.000081   0.000001  -0.000060
     9  H   -0.000031   0.000002   0.402986  -0.000007   0.015419   0.311196
    10  H    0.000011   0.000081  -0.000007   0.508442  -0.002999  -0.000072
    11  N   -0.000004   0.000001   0.015419  -0.002999   6.626343   0.001187
    12  N   -0.004545  -0.000060   0.311196  -0.000072   0.001187   6.755271
    13  H    0.003551  -0.000002  -0.029744   0.000002  -0.000072   0.322286
    14  C   -0.000029  -0.000006  -0.001378   0.007066   0.460202   0.003296
    15  C    0.000000  -0.000000   0.000085   0.000224  -0.072472  -0.000056
    16  C    0.000000  -0.000000   0.000034   0.000138  -0.007025  -0.000015
    17  C    0.000000   0.000000   0.000001   0.000005  -0.000259  -0.000000
    18  C   -0.000000   0.000000  -0.000001  -0.000000   0.000159   0.000000
    19  C   -0.000000  -0.000000  -0.000050  -0.000002  -0.000571   0.000012
    20  C   -0.000000  -0.000000  -0.000332  -0.000071   0.035683   0.000117
    21  H    0.000000   0.000000   0.000000   0.000011   0.000378  -0.000000
    22  Cl   0.000000  -0.000000  -0.000000   0.000000  -0.000001   0.000000
    23  H   -0.000000  -0.000000   0.000000  -0.000000  -0.000000  -0.000000
    24  I   -0.000000  -0.000000   0.000001  -0.000000   0.000016  -0.000000
    25  O    0.000000  -0.000000   0.000932   0.000000  -0.050366  -0.000394
    26  H    0.000000   0.000000   0.000060   0.000061  -0.048362  -0.000010
    27  H   -0.000000  -0.000000   0.002778  -0.000008   0.061113   0.000175
              13         14         15         16         17         18
     1  C   -0.021923  -0.021578   0.000004   0.000170   0.000006  -0.000002
     2  C   -0.005177  -0.001958  -0.000007  -0.000000  -0.000000  -0.000000
     3  C    0.000744   0.000555  -0.000003   0.000004   0.000000  -0.000000
     4  N    0.000016  -0.000068   0.000011  -0.000004  -0.000000   0.000000
     5  C   -0.000100   0.012859  -0.000007   0.000627   0.000022   0.000001
     6  C    0.004523  -0.160179  -0.001229   0.002076   0.000031  -0.000010
     7  H    0.003551  -0.000029   0.000000   0.000000   0.000000  -0.000000
     8  H   -0.000002  -0.000006  -0.000000  -0.000000   0.000000   0.000000
     9  H   -0.029744  -0.001378   0.000085   0.000034   0.000001  -0.000001
    10  H    0.000002   0.007066   0.000224   0.000138   0.000005  -0.000000
    11  N   -0.000072   0.460202  -0.072472  -0.007025  -0.000259   0.000159
    12  N    0.322286   0.003296  -0.000056  -0.000015  -0.000000   0.000000
    13  H    0.423219  -0.000091   0.000006   0.000000   0.000000  -0.000000
    14  C   -0.000091   5.505352   0.192175   0.079442  -0.004390   0.004012
    15  C    0.000006   0.192175   5.110858   0.366151  -0.028141  -0.063463
    16  C    0.000000   0.079442   0.366151   5.590251   0.324183  -0.092066
    17  C    0.000000  -0.004390  -0.028141   0.324183   5.308649   0.364819
    18  C   -0.000000   0.004012  -0.063463  -0.092066   0.364819   5.415689
    19  C   -0.000000  -0.008589  -0.124979  -0.075439  -0.040261   0.429275
    20  C   -0.000003  -0.091194   0.422225  -0.084935  -0.069851  -0.047169
    21  H    0.000000   0.006170  -0.038933   0.312476  -0.016043   0.008390
    22  Cl   0.000000  -0.000459  -0.001858  -0.111177   0.305963  -0.091800
    23  H   -0.000000   0.000025   0.000165   0.007094  -0.023250   0.325036
    24  I    0.000000  -0.000964  -0.011956  -0.000066   0.003581  -0.096649
    25  O   -0.000003  -0.013167  -0.057938  -0.002716  -0.000171   0.001747
    26  H    0.000000   0.329481  -0.061470   0.019546   0.003413   0.000091
    27  H    0.000007  -0.018125   0.010033   0.001813   0.000112  -0.000415
              19         20         21         22         23         24
     1  C   -0.000045  -0.001116   0.000002   0.000000   0.000000  -0.000000
     2  C   -0.000000  -0.000019   0.000000  -0.000000  -0.000000  -0.000000
     3  C   -0.000000  -0.000005   0.000000  -0.000000  -0.000000  -0.000000
     4  N    0.000000   0.000003  -0.000000  -0.000000   0.000000   0.000000
     5  C    0.000004   0.000037  -0.000036   0.000000   0.000000   0.000000
     6  C   -0.000487  -0.005012   0.000250  -0.000000  -0.000000  -0.000011
     7  H   -0.000000  -0.000000   0.000000   0.000000  -0.000000  -0.000000
     8  H   -0.000000  -0.000000   0.000000  -0.000000  -0.000000  -0.000000
     9  H   -0.000050  -0.000332   0.000000  -0.000000   0.000000   0.000001
    10  H   -0.000002  -0.000071   0.000011   0.000000  -0.000000  -0.000000
    11  N   -0.000571   0.035683   0.000378  -0.000001  -0.000000   0.000016
    12  N    0.000012   0.000117  -0.000000   0.000000  -0.000000  -0.000000
    13  H   -0.000000  -0.000003   0.000000   0.000000  -0.000000   0.000000
    14  C   -0.008589  -0.091194   0.006170  -0.000459   0.000025  -0.000964
    15  C   -0.124979   0.422225  -0.038933  -0.001858   0.000165  -0.011956
    16  C   -0.075439  -0.084935   0.312476  -0.111177   0.007094  -0.000066
    17  C   -0.040261  -0.069851  -0.016043   0.305963  -0.023250   0.003581
    18  C    0.429275  -0.047169   0.008390  -0.091800   0.325036  -0.096649
    19  C    5.996913   0.066422   0.000609   0.004741  -0.027854   0.365241
    20  C    0.066422   5.278945  -0.002840   0.000870   0.004974  -0.182165
    21  H    0.000609  -0.002840   0.477971  -0.003891  -0.000102   0.000018
    22  Cl   0.004741   0.000870  -0.003891   6.940672  -0.004220  -0.000234
    23  H   -0.027854   0.004974  -0.000102  -0.004220   0.450441  -0.004665
    24  I    0.365241  -0.182165   0.000018  -0.000234  -0.004665   6.776901
    25  O   -0.087155   0.451216  -0.000086   0.000001  -0.000029   0.001563
    26  H   -0.000652  -0.007334   0.003722  -0.000001   0.000000   0.000004
    27  H    0.005213  -0.059853  -0.000012   0.000000   0.000002   0.000548
              25         26         27
     1  C    0.000048   0.000513   0.000783
     2  C    0.000000   0.000003   0.000049
     3  C   -0.000001   0.000217   0.000008
     4  N    0.000000  -0.000068   0.000000
     5  C   -0.000205   0.013809   0.000629
     6  C    0.001390  -0.002594  -0.002070
     7  H    0.000000   0.000000  -0.000000
     8  H   -0.000000   0.000000  -0.000000
     9  H    0.000932   0.000060   0.002778
    10  H    0.000000   0.000061  -0.000008
    11  N   -0.050366  -0.048362   0.061113
    12  N   -0.000394  -0.000010   0.000175
    13  H   -0.000003   0.000000   0.000007
    14  C   -0.013167   0.329481  -0.018125
    15  C   -0.057938  -0.061470   0.010033
    16  C   -0.002716   0.019546   0.001813
    17  C   -0.000171   0.003413   0.000112
    18  C    0.001747   0.000091  -0.000415
    19  C   -0.087155  -0.000652   0.005213
    20  C    0.451216  -0.007334  -0.059853
    21  H   -0.000086   0.003722  -0.000012
    22  Cl   0.000001  -0.000001   0.000000
    23  H   -0.000029   0.000000   0.000002
    24  I    0.001563   0.000004   0.000548
    25  O    7.944118  -0.000531   0.225811
    26  H   -0.000531   0.505008   0.000461
    27  H    0.225811   0.000461   0.358947
 Mulliken charges:
               1
     1  C    0.253483
     2  C   -0.283160
     3  C   -0.339882
     4  N    0.008397
     5  C   -0.449187
     6  C    0.234597
     7  H    0.224814
     8  H    0.237814
     9  H    0.321509
    10  H    0.249362
    11  N   -0.263264
    12  N   -0.628923
    13  H    0.302759
    14  C   -0.278460
    15  C    0.360573
    16  C   -0.330561
    17  C   -0.128419
    18  C   -0.157643
    19  C   -0.502345
    20  C    0.291408
    21  H    0.251946
    22  Cl  -0.038605
    23  H    0.272382
    24  I    0.148837
    25  O   -0.414064
    26  H    0.244634
    27  H    0.411999
 Sum of Mulliken charges =  -0.00000
 Mulliken charges with hydrogens summed into heavy atoms:
               1
     1  C    0.253483
     2  C   -0.058346
     3  C   -0.102068
     4  N    0.008397
     5  C   -0.199826
     6  C    0.234597
    11  N   -0.263264
    12  N   -0.004656
    14  C   -0.033827
    15  C    0.360573
    16  C   -0.078615
    17  C   -0.128419
    18  C    0.114739
    19  C   -0.502345
    20  C    0.291408
    22  Cl  -0.038605
    24  I    0.148837
    25  O   -0.002065
 Electronic spatial extent (au):  <R**2>=           6890.3897
 Charge=              0.0000 electrons
 Dipole moment (field-independent basis, Debye):
    X=             -1.4940    Y=             -1.8046    Z=              1.9932  Tot=              3.0760
 Quadrupole moment (field-independent basis, Debye-Ang):
   XX=           -125.8667   YY=           -121.4618   ZZ=           -129.2771
   XY=             13.1050   XZ=            -11.2677   YZ=             -3.4848
 Traceless Quadrupole moment (field-independent basis, Debye-Ang):
   XX=             -0.3315   YY=              4.0734   ZZ=             -3.7419
   XY=             13.1050   XZ=            -11.2677   YZ=             -3.4848
 Octapole moment (field-independent basis, Debye-Ang**2):
  XXX=            259.7284  YYY=           -154.7865  ZZZ=             -7.2489  XYY=             41.5034
  XXY=           -154.3263  XXZ=             62.3883  XZZ=             92.4298  YZZ=            -46.8216
  YYZ=             12.8401  XYZ=              7.5053
 Hexadecapole moment (field-independent basis, Debye-Ang**3):
 XXXX=          -8502.7950 YYYY=          -2474.2297 ZZZZ=           -359.1564 XXXY=            249.4187
 XXXZ=           -438.8567 YYYX=           -324.9850 YYYZ=            -20.2679 ZZZX=            -58.6748
 ZZZY=             18.5818 XXYY=          -1821.3989 XXZZ=          -1642.1009 YYZZ=           -468.8704
 XXYZ=             -8.0572 YYXZ=           -102.8134 ZZXY=            -70.8901
 N-N= 1.132610829001D+03 E-N=-3.949403644520D+03  KE= 7.078123246194D+02
 PrsmSu:  requested number of processors reduced to:   9 ShMem   1 Linda.
   1 Symmetry operations used in ECPInt.
 ECPInt:  NShTT=    5671 NPrTT=   42095 LenC2=    5330 LenP2D=   24389.
 LDataN:  DoStor=T MaxTD1= 5 Len=  102
 Number of processors reduced to  11 by ecpmxn.
 Calling FoFJK, ICntrl=      2127 FMM=F ISym2X=0 I1Cent= 0 IOpClX= 0 NMat=1 NMatS=1 NMatT=0.
 Defaulting to unpruned grid for atomic number  53.
 Defaulting to unpruned grid for atomic number  53.
 Defaulting to unpruned grid for atomic number  53.
 Defaulting to unpruned grid for atomic number  53.
 Defaulting to unpruned grid for atomic number  53.
 Defaulting to unpruned grid for atomic number  53.
 Defaulting to unpruned grid for atomic number  53.
 Defaulting to unpruned grid for atomic number  53.
 Defaulting to unpruned grid for atomic number  53.
 Defaulting to unpruned grid for atomic number  53.
 Defaulting to unpruned grid for atomic number  53.
 Defaulting to unpruned grid for atomic number  53.
 ***** Axes restored to original set *****
 -------------------------------------------------------------------
 Center     Atomic                   Forces (Hartrees/Bohr)
 Number     Number              X              Y              Z
 -------------------------------------------------------------------
      1        6           0.001787269   -0.001356145   -0.001358810
      2        6          -0.011312407    0.005169046   -0.005387494
      3        6          -0.021928721   -0.008989546   -0.001893439
      4        7           0.001266848   -0.018556132    0.009405201
      5        6           0.021954875    0.000303811    0.006102235
      6        6          -0.002130118    0.003830749   -0.000459489
      7        1          -0.002674941    0.000124180   -0.000901170
      8        1          -0.001731775   -0.001491600    0.000109754
      9        1           0.006669456    0.003278522   -0.002846816
     10        1           0.001952301   -0.001199344    0.001447294
     11        7          -0.015910136    0.017868067    0.003271461
     12        7          -0.002046558    0.011645291    0.002438703
     13        1          -0.005716613    0.001943526   -0.005029228
     14        6           0.024229709   -0.012105860   -0.003629681
     15        6          -0.002983039   -0.004232395   -0.000666897
     16        6          -0.000493333   -0.009403374   -0.001742543
     17        6          -0.014700829    0.006072499    0.002867217
     18        6           0.009334014    0.005063571   -0.000005203
     19        6          -0.001542053    0.009480963    0.002032079
     20        6           0.018703548   -0.004944623   -0.003181322
     21        1           0.000100267   -0.003766446   -0.000794141
     22       17           0.028593953   -0.013373839   -0.006019829
     23        1           0.003083684    0.001945836    0.000044967
     24       53          -0.000799597    0.007124474    0.001611525
     25        8          -0.015931084    0.015356306    0.004748486
     26        1           0.000827446   -0.002320338   -0.000739376
     27        1          -0.018602165   -0.007467201    0.000576515
 -------------------------------------------------------------------
 Cartesian Forces:  Max     0.028593953 RMS     0.008860922

 GradGradGradGradGradGradGradGradGradGradGradGradGradGradGradGradGradGrad
 Berny optimization.
 FormGI is forming the generalized inverse of G from B-inverse, IUseBI=4.
 GSVD:  received Info=                   1 from GESDD.
 Internal  Forces:  Max     0.034807222 RMS     0.008323133
 Search for a local minimum.
 Step number   1 out of a maximum of  138
 All quantities printed in internal units (Hartrees-Bohrs-Radians)
 Mixed Optimization -- RFO/linear search
 Second derivative matrix not updated -- first step.
 ITU=  0
     Eigenvalues ---    0.01411   0.01668   0.01802   0.01951   0.01985
     Eigenvalues ---    0.02013   0.02045   0.02067   0.02082   0.02110
     Eigenvalues ---    0.02163   0.02169   0.02199   0.02205   0.02228
     Eigenvalues ---    0.02239   0.02249   0.02289   0.02298   0.02377
     Eigenvalues ---    0.02493   0.02550   0.03168   0.03207   0.13852
     Eigenvalues ---    0.15990   0.15999   0.16000   0.16000   0.16000
     Eigenvalues ---    0.16000   0.16000   0.16000   0.16000   0.22000
     Eigenvalues ---    0.22333   0.23244   0.23468   0.23497   0.24554
     Eigenvalues ---    0.24924   0.24966   0.25000   0.25000   0.25000
     Eigenvalues ---    0.25000   0.25000   0.25000   0.30930   0.34460
     Eigenvalues ---    0.35308   0.35454   0.35649   0.35810   0.36019
     Eigenvalues ---    0.38085   0.40764   0.41788   0.42430   0.42994
     Eigenvalues ---    0.44633   0.45325   0.45538   0.46035   0.46756
     Eigenvalues ---    0.46890   0.47275   0.47684   0.48538   0.48815
     Eigenvalues ---    0.51295   0.56213   0.58311   0.58349   0.71391
 RFO step:  Lambda=-2.03927063D-02 EMin= 1.41110553D-02
 Linear search not attempted -- first point.
 Iteration  1 RMS(Cart)=  0.11573118 RMS(Int)=  0.00186072
 Iteration  2 RMS(Cart)=  0.00949662 RMS(Int)=  0.00043186
 Iteration  3 RMS(Cart)=  0.00002529 RMS(Int)=  0.00043164
 Iteration  4 RMS(Cart)=  0.00000001 RMS(Int)=  0.00043164
 Variable       Old X    -DE/DX   Delta X   Delta X   Delta X     New X
                                 (Linear)    (Quad)   (Total)
    R1        2.64454   0.01855   0.00000   0.03771   0.03770   2.68225
    R2        2.67019   0.01638   0.00000   0.03452   0.03450   2.70469
    R3        2.58581   0.01743   0.00000   0.03267   0.03267   2.61848
    R4        2.61490   0.01726   0.00000   0.03444   0.03445   2.64935
    R5        2.04634   0.00274   0.00000   0.00727   0.00727   2.05361
    R6        2.52538   0.02457   0.00000   0.04199   0.04200   2.56738
    R7        2.04945   0.00228   0.00000   0.00609   0.00609   2.05554
    R8        2.51127   0.02476   0.00000   0.04094   0.04095   2.55222
    R9        2.63818   0.01610   0.00000   0.03320   0.03320   2.67138
   R10        2.05178   0.00266   0.00000   0.00712   0.00712   2.05889
   R11        2.64901   0.01433   0.00000   0.03025   0.03025   2.67926
   R12        1.89989   0.00688   0.00000   0.01410   0.01410   1.91398
   R13        2.42921   0.03272   0.00000   0.04456   0.04456   2.47377
   R14        1.89840   0.00670   0.00000   0.01368   0.01368   1.91208
   R15        2.74242   0.00495   0.00000   0.01233   0.01233   2.75475
   R16        2.06560   0.00252   0.00000   0.00689   0.00689   2.07250
   R17        2.64806   0.01276   0.00000   0.02655   0.02654   2.67460
   R18        2.67998   0.01107   0.00000   0.02409   0.02409   2.70406
   R19        2.60670   0.01493   0.00000   0.02936   0.02936   2.63606
   R20        2.04380   0.00385   0.00000   0.01017   0.01017   2.05397
   R21        2.63355   0.01641   0.00000   0.03425   0.03425   2.66781
   R22        3.29847   0.03214   0.00000   0.09747   0.09747   3.39595
   R23        2.61896   0.01698   0.00000   0.03425   0.03426   2.65322
   R24        2.04052   0.00365   0.00000   0.00958   0.00958   2.05010
   R25        2.64761   0.01407   0.00000   0.02940   0.02940   2.67701
   R26        3.97682   0.00733   0.00000   0.04614   0.04614   4.02296
   R27        2.52303   0.03481   0.00000   0.05768   0.05768   2.58070
   R28        1.87780   0.01832   0.00000   0.03602   0.03602   1.91383
    A1        2.04004   0.00264   0.00000   0.00519   0.00517   2.04521
    A2        2.13251  -0.00043   0.00000   0.00078   0.00079   2.13330
    A3        2.10935  -0.00221   0.00000  -0.00583  -0.00582   2.10353
    A4        2.08662   0.00089   0.00000   0.00181   0.00180   2.08843
    A5        2.09789   0.00026   0.00000   0.00301   0.00301   2.10091
    A6        2.09861  -0.00115   0.00000  -0.00482  -0.00482   2.09379
    A7        2.16477  -0.00390   0.00000  -0.01302  -0.01301   2.15177
    A8        2.08982   0.00203   0.00000   0.00695   0.00695   2.09677
    A9        2.02857   0.00187   0.00000   0.00607   0.00606   2.03463
   A10        2.03556   0.00232   0.00000   0.01550   0.01552   2.05108
   A11        2.17512  -0.00343   0.00000  -0.01220  -0.01220   2.16292
   A12        2.03287   0.00118   0.00000   0.00316   0.00316   2.03603
   A13        2.07427   0.00224   0.00000   0.00903   0.00903   2.08330
   A14        2.06380   0.00148   0.00000   0.00264   0.00262   2.06642
   A15        2.06822  -0.00137   0.00000  -0.00378  -0.00377   2.06445
   A16        2.14891  -0.00011   0.00000   0.00091   0.00092   2.14983
   A17        2.11987   0.01236   0.00000   0.04571   0.04571   2.16558
   A18        2.05832   0.00139   0.00000   0.02193   0.01925   2.07757
   A19        2.06721   0.00236   0.00000   0.02729   0.02462   2.09183
   A20        2.02567  -0.00023   0.00000   0.01530   0.01238   2.03805
   A21        2.14366  -0.00939   0.00000  -0.03905  -0.03905   2.10461
   A22        2.10931   0.00520   0.00000   0.02233   0.02233   2.13164
   A23        2.03015   0.00419   0.00000   0.01675   0.01674   2.04690
   A24        2.07643   0.00720   0.00000   0.02746   0.02747   2.10389
   A25        2.11579  -0.01009   0.00000  -0.03646  -0.03645   2.07934
   A26        2.09096   0.00289   0.00000   0.00900   0.00899   2.09995
   A27        2.09850  -0.00137   0.00000  -0.00591  -0.00591   2.09259
   A28        2.08662   0.00057   0.00000   0.00230   0.00231   2.08892
   A29        2.09807   0.00080   0.00000   0.00361   0.00361   2.10168
   A30        2.10342  -0.00080   0.00000  -0.00144  -0.00144   2.10199
   A31        2.09708   0.00037   0.00000   0.00060   0.00060   2.09768
   A32        2.08269   0.00043   0.00000   0.00084   0.00084   2.08352
   A33        2.09299   0.00074   0.00000   0.00499   0.00500   2.09799
   A34        2.09043  -0.00043   0.00000  -0.00286  -0.00287   2.08756
   A35        2.09977  -0.00030   0.00000  -0.00213  -0.00213   2.09764
   A36        2.11054  -0.00211   0.00000  -0.00758  -0.00757   2.10297
   A37        2.08720   0.00201   0.00000   0.00732   0.00731   2.09452
   A38        2.08544   0.00010   0.00000   0.00026   0.00026   2.08570
   A39        2.06995   0.00066   0.00000   0.00095   0.00094   2.07089
   A40        2.11786  -0.00334   0.00000  -0.01162  -0.01161   2.10625
   A41        2.09537   0.00268   0.00000   0.01067   0.01067   2.10604
   A42        1.86940   0.01531   0.00000   0.08485   0.08485   1.95425
    D1        0.00305  -0.00002   0.00000   0.00029   0.00028   0.00333
    D2       -3.12721   0.00003   0.00000   0.00078   0.00078  -3.12643
    D3        3.09058   0.00004   0.00000   0.00316   0.00315   3.09374
    D4       -0.03968   0.00009   0.00000   0.00365   0.00365  -0.03603
    D5       -0.02522  -0.00016   0.00000  -0.00254  -0.00255  -0.02777
    D6       -3.09704  -0.00001   0.00000   0.00092   0.00090  -3.09614
    D7       -3.11352  -0.00027   0.00000  -0.00558  -0.00558  -3.11910
    D8        0.09785  -0.00013   0.00000  -0.00212  -0.00213   0.09572
    D9        2.94268   0.00323   0.00000   0.06255   0.06306   3.00574
   D10        0.35067  -0.00340   0.00000  -0.06486  -0.06536   0.28531
   D11       -0.25508   0.00345   0.00000   0.06587   0.06637  -0.18871
   D12       -2.84709  -0.00319   0.00000  -0.06154  -0.06206  -2.90915
   D13        0.01895   0.00001   0.00000   0.00076   0.00077   0.01972
   D14       -3.13028   0.00008   0.00000   0.00166   0.00167  -3.12861
   D15       -3.13398  -0.00003   0.00000   0.00032   0.00032  -3.13365
   D16       -0.00003   0.00004   0.00000   0.00123   0.00123   0.00120
   D17       -0.01622   0.00004   0.00000   0.00014   0.00015  -0.01607
   D18        3.13277  -0.00003   0.00000  -0.00073  -0.00073   3.13204
   D19       -0.00880  -0.00008   0.00000  -0.00228  -0.00228  -0.01108
   D20        3.08593  -0.00011   0.00000  -0.00227  -0.00228   3.08365
   D21        0.02975   0.00012   0.00000   0.00351   0.00350   0.03326
   D22        3.09813  -0.00008   0.00000  -0.00031  -0.00033   3.09780
   D23       -3.06395   0.00019   0.00000   0.00366   0.00366  -3.06029
   D24        0.00443  -0.00002   0.00000  -0.00016  -0.00017   0.00426
   D25       -2.50845  -0.00094   0.00000  -0.02581  -0.02581  -2.53426
   D26        0.70653  -0.00084   0.00000  -0.02224  -0.02224   0.68429
   D27       -3.07045  -0.00009   0.00000  -0.00127  -0.00127  -3.07172
   D28        0.08333  -0.00018   0.00000  -0.00378  -0.00379   0.07954
   D29       -3.10354  -0.00044   0.00000  -0.01253  -0.01252  -3.11606
   D30        0.03507  -0.00040   0.00000  -0.01147  -0.01148   0.02360
   D31        0.02638  -0.00035   0.00000  -0.01007  -0.01007   0.01631
   D32       -3.11819  -0.00030   0.00000  -0.00901  -0.00902  -3.12721
   D33        3.13600   0.00011   0.00000   0.00314   0.00316   3.13916
   D34       -0.00402   0.00004   0.00000   0.00148   0.00150  -0.00252
   D35       -0.00266   0.00009   0.00000   0.00218   0.00218  -0.00048
   D36        3.14051   0.00002   0.00000   0.00052   0.00052   3.14103
   D37       -3.13705  -0.00016   0.00000  -0.00371  -0.00370  -3.14076
   D38        0.00539  -0.00029   0.00000  -0.00706  -0.00703  -0.00164
   D39        0.00154  -0.00010   0.00000  -0.00262  -0.00263  -0.00109
   D40       -3.13920  -0.00024   0.00000  -0.00597  -0.00596   3.13802
   D41        0.00125  -0.00001   0.00000  -0.00011  -0.00010   0.00114
   D42       -3.13932  -0.00007   0.00000  -0.00171  -0.00171  -3.14103
   D43        3.14126   0.00006   0.00000   0.00156   0.00157  -3.14036
   D44        0.00069  -0.00001   0.00000  -0.00005  -0.00004   0.00065
   D45        0.00129  -0.00006   0.00000  -0.00151  -0.00151  -0.00022
   D46       -3.14091  -0.00003   0.00000  -0.00072  -0.00072   3.14155
   D47       -3.14132   0.00000   0.00000   0.00009   0.00009  -3.14124
   D48       -0.00034   0.00004   0.00000   0.00088   0.00088   0.00054
   D49       -0.00241   0.00005   0.00000   0.00102   0.00102  -0.00139
   D50        3.14145   0.00004   0.00000   0.00087   0.00088  -3.14086
   D51        3.13979   0.00001   0.00000   0.00023   0.00023   3.14002
   D52        0.00047   0.00000   0.00000   0.00008   0.00008   0.00055
   D53        0.00099   0.00004   0.00000   0.00104   0.00103   0.00202
   D54       -3.14145   0.00017   0.00000   0.00433   0.00435  -3.13710
   D55        3.14031   0.00005   0.00000   0.00120   0.00119   3.14150
   D56       -0.00212   0.00018   0.00000   0.00449   0.00450   0.00238
   D57        0.01410  -0.00016   0.00000  -0.00331  -0.00331   0.01079
   D58       -3.12662  -0.00030   0.00000  -0.00670  -0.00670  -3.13333
         Item               Value     Threshold  Converged?
 Maximum Force            0.034807     0.000450     NO 
 RMS     Force            0.008323     0.000300     NO 
 Maximum Displacement     0.413580     0.001800     NO 
 RMS     Displacement     0.123572     0.001200     NO 
 Predicted change in Energy=-1.092685D-02
 GradGradGradGradGradGradGradGradGradGradGradGradGradGradGradGradGradGrad

                          Input orientation:                          
 ---------------------------------------------------------------------
 Center     Atomic      Atomic             Coordinates (Angstroms)
 Number     Number       Type             X           Y           Z
 ---------------------------------------------------------------------
      1          6           0       -2.875589   -1.376968   -0.386197
      2          6           0       -4.047964   -2.167943   -0.265596
      3          6           0       -3.976515   -3.424572    0.351911
      4          7           0       -2.830663   -3.934803    0.873906
      5          6           0       -1.710090   -3.188403    0.767777
      6          6           0       -1.661238   -1.923638    0.138225
      7          1           0       -4.995574   -1.809343   -0.658541
      8          1           0       -4.867678   -4.042356    0.437698
      9          1           0       -2.043390    0.425652   -0.991315
     10          1           0       -0.811889   -3.585311    1.239743
     11          7           0       -0.487526   -1.130372    0.080846
     12          7           0       -2.873619   -0.152807   -1.035372
     13          1           0       -3.748695    0.319390   -1.222649
     14          6           0        0.714120   -1.611469   -0.114715
     15          6           0        1.879220   -0.736316   -0.073663
     16          6           0        3.174923   -1.251838   -0.315682
     17          6           0        4.280109   -0.401638   -0.275881
     18          6           0        4.115933    0.971912    0.005939
     19          6           0        2.835867    1.495086    0.248847
     20          6           0        1.696719    0.653772    0.212523
     21          1           0        3.301780   -2.309519   -0.531560
     22         17           0        5.928694   -1.047676   -0.582823
     23          1           0        4.984763    1.620991    0.033564
     24         53           0        2.595443    3.567593    0.671876
     25          8           0        0.449415    1.159813    0.443080
     26          1           0        0.890433   -2.673684   -0.323051
     27          1           0       -0.265191    0.443948    0.392612
 ---------------------------------------------------------------------
                    Distance matrix (angstroms):
                    1          2          3          4          5
     1  C    0.000000
     2  C    1.419384   0.000000
     3  C    2.439164   1.401975   0.000000
     4  N    2.851735   2.429419   1.358599   0.000000
     5  C    2.443633   2.752246   2.316334   1.350578   0.000000
     6  C    1.431263   2.432944   2.767484   2.439992   1.413631
     7  H    2.180701   1.086722   2.160661   3.398943   3.838046
     8  H    3.428048   2.163325   1.087745   2.085971   3.287636
     9  H    2.075611   3.357338   4.512809   4.807537   4.033223
    10  H    3.432100   3.840203   3.290735   2.081208   1.089519
    11  N    2.445769   3.724688   4.184480   3.739528   2.490387
    12  N    1.385642   2.456098   3.720938   4.236824   3.717525
    13  H    2.083170   2.681854   4.067971   4.830785   4.519106
    14  C    3.607589   4.796861   5.050459   4.352095   3.023624
    15  C    4.807943   6.100648   6.457357   5.771586   4.427629
    16  C    6.052216   7.280924   7.503967   6.684346   5.365400
    17  C    7.222703   8.513327   8.814992   8.022988   6.688629
    18  C    7.385959   8.751094   9.216099   8.548943   7.199386
    19  C    6.424384   7.814702   8.403702   7.872989   6.547525
    20  C    5.038687   6.418104   6.988411   6.479940   5.164974
    21  H    6.249053   7.355917   7.416025   6.497979   5.251623
    22  Cl   8.812633  10.044369  10.229200   9.337232   8.047226
    23  H    8.423128   9.799780  10.289001   9.625690   8.275892
    24  I    7.449858   8.826669   9.601218   9.261176   8.011885
    25  O    4.263638   5.639380   6.372892   6.074507   4.865786
    26  H    3.983514   4.964559   4.970572   4.107272   2.866629
    27  H    3.276653   4.643768   5.361066   5.097720   3.927143
                    6          7          8          9         10
     6  C    0.000000
     7  H    3.430116   0.000000
     8  H    3.854855   2.490872   0.000000
     9  H    2.634590   3.717705   5.475561   0.000000
    10  H    2.167001   4.925521   4.159518   4.752056   0.000000
    11  N    1.417803   4.618463   5.271881   2.447745   2.734041
    12  N    2.446025   2.718236   4.612461   1.012835   4.605319
    13  H    3.352705   2.530697   4.799344   1.724202   5.471279
    14  C    2.409098   5.738947   6.113169   3.538665   2.838893
    15  C    3.740251   6.982569   7.530739   4.192747   4.133265
    16  C    4.903652   8.196670   8.546228   5.522793   4.874332
    17  C    6.147160   9.389694   9.871475   6.417390   6.193653
    18  C    6.463546   9.549685  10.297309   6.263400   6.824514
    19  C    5.650121   8.548338   9.489128   5.146731   6.332333
    20  C    4.233726   7.184182   8.074381   3.935693   5.031711
    21  H    5.022854   8.313386   8.407272   6.021908   4.656977
    22  Cl   7.674262  10.951051  11.250388   8.117370   7.429455
    23  H    7.532907  10.576074  11.371342   7.202371   7.884265
    24  I    6.968338   9.397074  10.661348   5.844380   7.943326
    25  O    3.749062   6.298997   7.438687   2.968259   4.974109
    26  H    2.699328   5.958584   5.967231   4.319696   2.484208
    27  H    2.760276   5.344040   6.427429   2.253348   4.153485
                   11         12         13         14         15
    11  N    0.000000
    12  N    2.809807   0.000000
    13  H    3.799492   1.011831   0.000000
    14  C    1.309065   3.980851   4.987229   0.000000
    15  C    2.404296   4.884142   5.840215   1.457751   0.000000
    16  C    3.685854   6.189562   7.157363   2.495050   1.415338
    17  C    4.836181   7.198233   8.116523   3.769077   2.432523
    18  C    5.061328   7.155638   7.986714   4.273260   2.815540
    19  C    4.238655   6.079721   6.848652   3.779507   2.449151
    20  C    2.823372   4.805808   5.641282   2.490763   1.430928
    21  H    4.015503   6.560547   7.556319   2.712382   2.169865
    22  Cl   6.450982   8.859250   9.794392   5.265812   4.093217
    23  H    6.125208   8.126694   8.918830   5.358095   3.900358
    24  I    5.650211   6.831304   7.374832   5.566039   4.426335
    25  O    2.500803   3.866697   4.594028   2.839226   2.430364
    26  H    2.108012   4.585881   5.593682   1.096718   2.189358
    27  H    1.620220   3.033010   3.841794   2.332632   2.491774
                   16         17         18         19         20
    16  C    0.000000
    17  C    1.394941   0.000000
    18  C    2.435982   1.411742   0.000000
    19  C    2.824756   2.441052   1.404024   0.000000
    20  C    2.468894   2.833078   2.448773   1.416612   0.000000
    21  H    1.086916   2.159285   3.423382   3.911666   3.451228
    22  Cl   2.774221   1.797057   2.776956   4.089363   4.630024
    23  H    3.413303   2.164098   1.084865   2.163320   3.432022
    24  I    4.953583   4.414876   3.081058   2.128859   3.083677
    25  O    3.717549   4.198719   3.697263   2.417703   1.365650
    26  H    2.690835   4.080970   4.878776   4.635776   3.465385
    27  H    3.900225   4.671365   4.429731   3.277518   1.981300
                   21         22         23         24         25
    21  H    0.000000
    22  Cl   2.914714   0.000000
    23  H    4.312854   2.897020   0.000000
    24  I    6.040498   5.829712   3.147309   0.000000
    25  O    4.595886   5.995664   4.577092   3.233448   0.000000
    26  H    2.447587   5.300515   5.944320   6.546027   3.934101
    27  H    4.599887   6.445203   5.392251   4.244806   1.012755
                   26         27
    26  H    0.000000
    27  H    3.401069   0.000000
 Stoichiometry    C12H9ClIN3O
 Framework group  C1[X(C12H9ClIN3O)]
 Deg. of freedom    75
 Full point group                 C1      NOp   1
 Largest Abelian subgroup         C1      NOp   1
 Largest concise Abelian subgroup C1      NOp   1
                         Standard orientation:                         
 ---------------------------------------------------------------------
 Center     Atomic      Atomic             Coordinates (Angstroms)
 Number     Number       Type             X           Y           Z
 ---------------------------------------------------------------------
      1          6           0       -4.314479   -0.935338    0.562016
      2          6           0       -5.724515   -0.992875    0.409903
      3          6           0       -6.378993   -0.023593   -0.363199
      4          7           0       -5.728378    0.979072   -1.009072
      5          6           0       -4.385985    1.040580   -0.873942
      6          6           0       -3.629187    0.135926   -0.094705
      7          1           0       -6.298294   -1.776310    0.897725
      8          1           0       -7.460564   -0.053229   -0.475068
      9          1           0       -2.607294   -1.823230    1.340044
     10          1           0       -3.872534    1.815622   -1.442034
     11          7           0       -2.215037    0.183867   -0.005002
     12          7           0       -3.619929   -1.831775    1.358260
     13          1           0       -4.063232   -2.692422    1.652488
     14          6           0       -1.521351    1.292099    0.060356
     15          6           0       -0.064053    1.255893    0.063309
     16          6           0        0.684971    2.452469    0.165042
     17          6           0        2.078987    2.401873    0.169502
     18          6           0        2.749962    1.163630    0.071718
     19          6           0        2.018131   -0.030184   -0.030823
     20          6           0        0.601720   -0.006842   -0.035691
     21          1           0        0.168682    3.406059    0.239193
     22         17           0        3.037769    3.916247    0.299200
     23          1           0        3.834557    1.139877    0.076437
     24         53           0        3.036424   -1.894016   -0.176601
     25          8           0       -0.113718   -1.166262   -0.130001
     26          1           0       -1.999812    2.276912    0.123666
     27          1           0       -1.112146   -0.996523   -0.129197
 ---------------------------------------------------------------------
 Rotational constants (GHZ):      0.3593595      0.1221070      0.0935839
 Standard basis: LANL2DZ (5D, 7F)
 There are   178 symmetry adapted cartesian basis functions of A   symmetry.
 There are   178 symmetry adapted basis functions of A   symmetry.
   178 basis functions,   460 primitive gaussians,   178 cartesian basis functions
    62 alpha electrons       62 beta electrons
       nuclear repulsion energy      1123.1765364230 Hartrees.
 NAtoms=   27 NActive=   27 NUniq=   27 SFac= 1.00D+00 NAtFMM=   60 NAOKFM=F Big=F
 Integral buffers will be    131072 words long.
 Raffenetti 2 integral format.
 Two-electron integral symmetry is turned on.
 One-electron integrals computed using PRISM.
 PrsmSu:  requested number of processors reduced to:   9 ShMem   1 Linda.
   1 Symmetry operations used in ECPInt.
 ECPInt:  NShTT=    5671 NPrTT=   42095 LenC2=    5320 LenP2D=   24294.
 LDataN:  DoStor=T MaxTD1= 4 Len=   56
 Number of processors reduced to  11 by ecpmxn.
 NBasis=   178 RedAO= T EigKep=  5.02D-04  NBF=   178
 NBsUse=   178 1.00D-06 EigRej= -1.00D+00 NBFU=   178
 Defaulting to unpruned grid for atomic number  53.
 Initial guess from the checkpoint file:  "PSB4.chk"
 B after Tr=    -0.000000    0.000000    0.000000
         Rot=    0.999890    0.001309   -0.003122    0.014421 Ang=   1.70 deg.
 ExpMin= 1.05D-01 ExpMax= 7.82D+03 ExpMxC= 2.73D+02 IAcc=1 IRadAn=         1 AccDes= 0.00D+00
 Harris functional with IExCor=  402 and IRadAn=       1 diagonalized for initial guess.
 HarFok:  IExCor=  402 AccDes= 0.00D+00 IRadAn=         1 IDoV= 1 UseB2=F ITyADJ=14
 ICtDFT=  3500011 ScaDFX=  1.000000  1.000000  1.000000  1.000000
 Defaulting to unpruned grid for atomic number  53.
 Defaulting to unpruned grid for atomic number  53.
 Defaulting to unpruned grid for atomic number  53.
 Defaulting to unpruned grid for atomic number  53.
 Defaulting to unpruned grid for atomic number  53.
 Defaulting to unpruned grid for atomic number  53.
 Defaulting to unpruned grid for atomic number  53.
 Defaulting to unpruned grid for atomic number  53.
 Defaulting to unpruned grid for atomic number  53.
 Defaulting to unpruned grid for atomic number  53.
 Defaulting to unpruned grid for atomic number  53.
 Defaulting to unpruned grid for atomic number  53.
 FoFCou: FMM=F IPFlag=           0 FMFlag=      100000 FMFlg1=           0
         NFxFlg=           0 DoJE=T BraDBF=F KetDBF=T FulRan=T
         wScrn=  0.000000 ICntrl=     500 IOpCl=  0 I1Cent=   200000004 NGrid=           0
         NMat0=    1 NMatS0=      1 NMatT0=    0 NMatD0=    1 NMtDS0=    0 NMtDT0=    0
 Petite list used in FoFCou.
 Requested convergence on RMS density matrix=1.00D-08 within 128 cycles.
 Requested convergence on MAX density matrix=1.00D-06.
 Requested convergence on             energy=1.00D-06.
 No special actions if energy rises.
 Integral accuracy reduced to 1.0D-05 until final iterations.
 Defaulting to unpruned grid for atomic number  53.
 Defaulting to unpruned grid for atomic number  53.
 Defaulting to unpruned grid for atomic number  53.
 Defaulting to unpruned grid for atomic number  53.
 Defaulting to unpruned grid for atomic number  53.
 Defaulting to unpruned grid for atomic number  53.
 Defaulting to unpruned grid for atomic number  53.
 Defaulting to unpruned grid for atomic number  53.
 Defaulting to unpruned grid for atomic number  53.
 Defaulting to unpruned grid for atomic number  53.
 Defaulting to unpruned grid for atomic number  53.
 Defaulting to unpruned grid for atomic number  53.
 Initial convergence to 1.0D-05 achieved.  Increase integral accuracy.
 SCF Done:  E(RB3LYP) =  -728.378209449     A.U. after   15 cycles
            NFock= 15  Conv=0.65D-08     -V/T= 2.0305
 PrsmSu:  requested number of processors reduced to:   9 ShMem   1 Linda.
   1 Symmetry operations used in ECPInt.
 ECPInt:  NShTT=    5671 NPrTT=   42095 LenC2=    5320 LenP2D=   24294.
 LDataN:  DoStor=T MaxTD1= 5 Len=  102
 Number of processors reduced to  11 by ecpmxn.
 Calling FoFJK, ICntrl=      2127 FMM=F ISym2X=0 I1Cent= 0 IOpClX= 0 NMat=1 NMatS=1 NMatT=0.
 Defaulting to unpruned grid for atomic number  53.
 Defaulting to unpruned grid for atomic number  53.
 Defaulting to unpruned grid for atomic number  53.
 Defaulting to unpruned grid for atomic number  53.
 Defaulting to unpruned grid for atomic number  53.
 Defaulting to unpruned grid for atomic number  53.
 Defaulting to unpruned grid for atomic number  53.
 Defaulting to unpruned grid for atomic number  53.
 Defaulting to unpruned grid for atomic number  53.
 Defaulting to unpruned grid for atomic number  53.
 Defaulting to unpruned grid for atomic number  53.
 Defaulting to unpruned grid for atomic number  53.
 ***** Axes restored to original set *****
 -------------------------------------------------------------------
 Center     Atomic                   Forces (Hartrees/Bohr)
 Number     Number              X              Y              Z
 -------------------------------------------------------------------
      1        6           0.000809900   -0.000751857   -0.002009176
      2        6           0.000751872    0.000964446   -0.000071551
      3        6          -0.000122360    0.003158845   -0.001522874
      4        7           0.000405332   -0.004002246    0.002398317
      5        6           0.000692466    0.002399772   -0.001547673
      6        6           0.000917549   -0.001910706   -0.000107361
      7        1          -0.000027553    0.000227711   -0.000086987
      8        1           0.001089591   -0.000285703    0.000307444
      9        1          -0.000123041   -0.001880534   -0.002588182
     10        1          -0.000926214   -0.000582893   -0.000271942
     11        7          -0.010493084   -0.002653960   -0.001394868
     12        7          -0.000992495    0.003009755    0.006661091
     13        1           0.000476640   -0.002012968   -0.001777356
     14        6           0.003171170   -0.001504716    0.000649935
     15        6          -0.001222695   -0.000856714   -0.000056729
     16        6           0.002366552   -0.001276856   -0.000338463
     17        6          -0.012958326    0.004749426    0.002361852
     18        6           0.001822126   -0.000538136   -0.000314684
     19        6          -0.001328486    0.000746015    0.000310879
     20        6          -0.002924771    0.000425987    0.000123556
     21        1          -0.000039368   -0.000035503   -0.000030172
     22       17           0.006330512   -0.002330306   -0.001157427
     23        1          -0.000101080    0.000113004    0.000064436
     24       53           0.000117248   -0.001238554   -0.000226752
[...]
 485,-0.00002662,-0.00077365,-0.00017465,-0.00001281,-0.00003043,0.0000
 5926,-0.02160706,-0.02788169,-0.00391172,-0.00962765,-0.25559721,-0.02
 358266,0.06240142,-0.00824002,-0.00730526,-0.02488078,-0.05243023,-0.0
 0442934,-0.02145737,0.05559392,0.00896069,-0.07968165,-0.18051481,-0.0
 0831779,0.02463607,0.61586969,0.00005070,0.00073860,-0.00020763,-0.000
 16513,-0.00026907,0.00009914,-0.00014144,0.00030484,-0.00016468,0.0003
 0106,0.00004026,0.00022264,-0.00018228,-0.00030294,0.00001959,0.000039
 30,-0.00051107,-0.00067662,0.00000264,-0.00000160,0.00001655,0.0000050
 3,-0.00001765,-0.00001835,0.00042431,0.00043775,0.00056907,-0.00002167
 ,-0.00001039,0.00000488,0.00167427,-0.00399344,-0.00124423,-0.00013618
 ,-0.00062621,-0.00014021,-0.00003975,-0.00003567,0.00003512,-0.0043817
 5,-0.00280252,0.00604872,0.00314849,-0.02645293,-0.08086097,0.00678883
 ,-0.00541472,0.00387141,-0.00259262,-0.00362712,-0.00551594,0.00213650
 ,0.00617461,0.00512613,0.00153612,-0.00463770,-0.07118279,-0.04328828,
 0.05896371,0.17896634,-0.00003451,0.00020379,-0.00004954,-0.00000642,-
 0.00004646,0.00001105,-0.00004775,0.00004068,-0.00002608,0.00014319,0.
 00002817,0.00000998,-0.00009656,-0.00007964,-0.00003732,-0.00002063,0.
 00003794,0.00005490,0.00001154,-0.00000378,0.00000661,0.00001183,0.000
 00395,0.00000064,0.00001758,0.00004845,0.00000606,0.00000444,-0.000025
 24,0.00005495,0.00038880,-0.00101302,-0.00022410,0.00001892,-0.0001469
 3,0.00003741,-0.00000807,0.00001073,0.00000088,0.00103802,0.00246979,-
 0.00004598,-0.00037791,0.02814958,0.00428470,-0.06050351,0.03525461,0.
 00687065,0.00510273,-0.02690874,-0.00381527,-0.00397167,-0.00258131,0.
 00045678,-0.00071476,0.00010153,0.00001610,-0.00455806,0.00069468,0.00
 095476,0.06291763,0.00004427,-0.00006139,-0.00000240,-0.00000329,-0.00
 000520,0.00000176,0.00000451,0.00000703,-0.00000096,-0.00001130,0.0000
 1365,-0.00001045,0.00004523,0.00002865,0.00000073,-0.00016765,-0.00001
 025,-0.00000121,-0.00000100,-0.00000052,0.00000013,-0.00000024,-0.0000
 0005,-0.00000040,-0.00002040,-0.00001508,-0.00002627,-0.00000717,0.000
 00761,-0.00000279,0.00072677,0.00016646,0.00001151,0.00000074,0.000033
 30,0.00001535,0.00000306,0.00000012,-0.00000612,-0.00202616,0.00045113
 ,0.00073448,-0.00278011,-0.00632833,-0.00117392,0.03282630,-0.33717605
 ,-0.04433491,0.00842749,-0.01297143,-0.00311759,-0.00287306,-0.0005408
 1,-0.00060730,-0.00027724,0.00089063,0.00025117,0.00046225,0.00172844,
 -0.00058067,-0.03557905,0.35347616,0.00004502,-0.00005665,0.00007732,0
 .00002152,0.00000285,-0.00003228,0.00001610,-0.00001745,0.00001356,-0.
 00006010,-0.00001862,-0.00004932,0.00004512,-0.00000014,0.00002688,-0.
 00006967,-0.00012326,0.00025615,-0.00000066,0.00000680,0.00000063,-0.0
 0000558,0.00000280,0.00000913,-0.00002010,0.00000295,0.00002710,-0.000
 00259,0.00001837,0.00001003,0.00012165,0.00014038,-0.00012619,0.000004
 06,0.00007450,-0.00006469,0.00000010,0.00000325,0.00001420,-0.00073807
 ,0.00040027,-0.00367830,0.00007745,-0.00380749,0.00311736,0.00644981,-
 0.04457069,-0.04432975,0.00110779,-0.00002901,0.00408869,0.00044461,-0
 .00067325,0.00549195,-0.00005925,0.00022848,-0.00074935,0.00090969,-0.
 00055002,0.00555653,-0.00822361,0.04859862,0.03250097,-0.00009295,-0.0
 0043721,0.00007619,0.00010273,0.00013031,-0.00005454,0.00019655,-0.000
 24163,0.00015325,-0.00057444,-0.00028465,-0.00004795,0.00002481,0.0004
 6035,-0.00004699,0.00036114,-0.00005208,0.00002646,-0.00004848,0.00001
 660,-0.00001689,-0.00004583,-0.00001293,0.00001750,0.00018000,-0.00004
 172,0.00013956,0.00002243,0.00005420,-0.00005922,-0.00170855,-0.000317
 58,0.00003109,-0.00005353,0.00026111,-0.00017263,0.00002722,-0.0000422
 7,0.00004060,0.00052059,0.00215672,0.00031496,0.00012876,-0.00527055,-
 0.00038646,-0.03318627,0.02114382,0.00598398,-0.12016041,0.03368565,0.
 01343424,-0.01999090,0.00314381,0.00236301,0.00166913,-0.00017330,0.00
 017643,0.00195536,-0.00037266,-0.00025536,0.00084002,0.00014139,-0.000
 27723,0.17157599,0.00004889,0.00013776,-0.00000204,-0.00005149,-0.0000
 4765,0.00001712,-0.00006609,0.00010929,-0.00006360,0.00022015,0.000117
 41,0.00002769,-0.00001071,-0.00019198,0.00002236,-0.00019964,0.0000248
 1,-0.00002929,0.00001567,-0.00000669,0.00000604,0.00001596,0.00000298,
 -0.00000987,-0.00006886,0.00001139,-0.00005061,-0.00000261,-0.00002037
 ,0.00001800,0.00061881,-0.00015933,-0.00001912,0.00001483,-0.00008154,
 0.00005440,-0.00001059,0.00001140,-0.00001711,-0.00115647,-0.00056553,
 -0.00007382,0.00042840,-0.00101438,-0.00077165,-0.01106674,0.00403225,
 0.00114835,0.03497626,-0.04664687,-0.00691772,0.03406572,-0.01026354,-
 0.00468996,-0.00351127,-0.00215316,-0.00054211,0.00019804,0.00152659,0
 .00024519,-0.00022472,0.00106663,0.00054449,-0.05605953,0.05431490,0.0
 0000108,0.00005403,-0.00001237,-0.00001984,-0.00001214,0.00001723,-0.0
 0002846,0.00003510,-0.00002404,0.00008154,0.00005121,0.00001957,0.0000
 0647,-0.00006763,0.00000759,-0.00006819,0.00003937,-0.00015541,0.00000
 631,-0.00000410,0.00000115,0.00000702,0.00000077,-0.00000553,-0.000022
 37,0.00001000,-0.00002579,-0.00000130,-0.00000978,0.00000266,0.0002363
 5,-0.00000183,-0.00001340,0.00000746,-0.00004609,0.00003359,-0.0000030
 4,0.00000576,-0.00000857,-0.00015689,-0.00036755,0.00059851,0.00041407
 ,-0.00026954,0.00429254,0.00155389,-0.00162710,0.00222924,0.01356743,-
 0.00681549,-0.02037966,0.00662304,-0.00201331,0.00162199,-0.00027637,-
 0.00083971,0.00386812,-0.00016118,0.00029241,-0.00033080,-0.00031987,0
 .00052192,-0.00258195,-0.02161900,0.01091128,0.01348633,-0.00000976,-0
 .00000063,0.00000039,0.00000051,0.00000423,-0.00000186,0.00000086,-0.0
 0000226,0.00000073,-0.00000345,-0.00000445,0.00000498,-0.00001068,-0.0
 0001183,0.00000137,0.00006426,0.00001951,0.00000571,-0.00000207,0.,-0.
 00000040,-0.00000108,-0.00000090,-0.00000048,0.00002051,-0.00000488,0.
 00001577,-0.00000098,0.00000278,-0.00000315,-0.00008346,-0.00013673,-0
 .00004580,-0.00000548,0.00000660,-0.00000593,-0.00000156,-0.00000645,0
 .00000111,0.00010254,0.00001531,-0.00003289,0.00004913,0.00086492,0.00
 002856,0.00055379,0.00147932,0.00060167,0.00495227,0.00803536,0.001070
 18,-0.24896911,-0.14404546,-0.00191187,-0.01618529,-0.01779557,-0.0008
 3842,-0.00236291,0.00252425,0.00116400,0.00035704,0.00009050,-0.000009
 62,0.00109560,0.00047796,-0.00020854,0.26163335,-0.00000300,0.00003915
 ,-0.00000896,-0.00001038,-0.00001066,0.00000341,-0.00000985,0.00001564
 ,-0.00000985,0.00002239,0.00001059,0.00000900,0.00000777,-0.00002998,0
 .00000287,-0.00000365,0.00000776,-0.00002352,0.00000147,0.,0.00000115,
 0.00000082,0.00000010,-0.00000188,-0.00000294,0.00000940,-0.00000646,-
 0.00000182,0.00000176,-0.00000231,0.00003202,0.00006111,0.00005801,-0.
 00000168,-0.00003184,0.00000892,-0.00000058,0.00000394,-0.00000081,-0.
 00011767,-0.00009241,0.00005005,0.00131159,-0.00006755,0.00000953,0.00
 141147,-0.00450422,-0.00145291,-0.02631967,-0.01312416,-0.00014739,-0.
 14380624,-0.15827189,-0.00401912,0.01510730,0.00830628,-0.00054241,0.0
 0238088,-0.00102433,-0.00130984,-0.00104971,-0.00060167,-0.00001042,0.
 00022146,0.00073413,0.00039738,0.14883709,0.16794064,0.00002904,0.0000
 2183,-0.00001205,-0.00001986,-0.00001424,0.00000136,-0.00000492,0.0000
 2941,-0.00001441,0.00003442,-0.00001604,-0.00000440,-0.00003160,-0.000
 01190,0.00001594,0.00001376,-0.00002989,0.00010118,-0.00000123,-0.0000
 0013,0.00000202,-0.00000070,0.00000107,0.00000256,0.00000794,-0.000006
 61,0.00000954,-0.00000333,0.00000070,0.00000137,-0.00008523,0.00011594
 ,-0.00020874,0.00000814,-0.00001904,-0.00000593,-0.00000577,0.00000429
 ,0.00001025,0.00001931,0.00002465,-0.00038923,0.00005453,0.00002721,-0
 .00097509,0.00058934,-0.00146632,0.00493841,-0.00367950,-0.00309190,0.
 00425991,-0.00186999,-0.00402627,-0.03988077,0.00372199,0.00230793,0.0
 0307050,0.00115692,-0.00128612,0.00657009,-0.00015949,-0.00010378,0.00
 012394,-0.00026505,0.00037258,-0.00220292,0.00028841,0.00683065,0.0264
 5710,0.00000457,-0.00002635,0.00001376,0.00000008,0.00000307,-0.000001
 21,-0.00000044,-0.00000483,0.00000266,-0.00000532,0.00000846,-0.000003
 15,0.00000305,-0.00000042,0.00000167,-0.00004172,-0.00000853,-0.000008
 18,-0.00000028,0.00000022,-0.00000128,-0.00000012,0.00000008,-0.000000
 28,-0.00001605,-0.00000414,-0.00002479,-0.00000099,0.00000366,-0.00000
 530,0.00018602,0.00001158,0.00001181,-0.00000070,0.00001755,0.00000936
 ,0.00000283,-0.00000198,-0.00000416,-0.00009490,-0.00048941,-0.0000641
 8,-0.00144765,-0.00041092,0.00033647,0.00025704,0.00066107,0.00003970,
 -0.00163182,-0.00061813,0.00033098,-0.00094506,0.01953008,0.00304126,-
 0.02270864,0.01053437,0.00204625,0.00136189,-0.01293693,-0.00159143,0.
 00000682,0.00001468,-0.00002831,-0.00033663,0.00045713,0.00010766,-0.0
 0011802,0.00123880,0.00002361,0.02531866,0.00001637,-0.00059488,0.0001
 7664,0.00009877,0.00016374,-0.00004674,0.00012641,-0.00017700,0.000110
 36,-0.00035118,-0.00008337,-0.00007457,0.00007719,0.00025687,0.0000408
 8,-0.00000538,-0.00002454,-0.00001710,-0.00003096,0.00000138,-0.000018
 70,-0.00001970,-0.00000693,0.00000825,0.00001451,-0.00015675,-0.000006
 44,0.00000728,0.00002533,-0.00006238,-0.00042335,0.00092206,0.00019206
 ,-0.00004214,0.00047336,-0.00010390,0.00001242,-0.00005710,-0.00000613
 ,0.00180282,-0.00081935,-0.00024093,-0.00446279,0.00233477,0.00032310,
 -0.00005912,-0.00104210,-0.00008795,0.00093244,0.00404256,0.00004662,0
 .00089992,-0.02528983,-0.00396501,0.00418245,-0.10007115,-0.01197393,0
 .01049448,-0.03000537,-0.00564341,-0.00002026,-0.00013064,0.00002611,0
 .00063350,-0.00070444,-0.00017771,0.00017237,0.00005958,0.00025300,-0.
 01385289,0.15049162,0.00000161,-0.00008941,0.00002855,0.00001910,0.000
 02234,-0.00000620,0.00001707,-0.00002957,0.00001706,-0.00005304,-0.000
 00489,-0.00000840,0.00002072,0.00003790,-0.00000117,-0.00002401,0.0000
 0335,-0.00001792,-0.00000402,0.00000063,-0.00000174,-0.00000236,-0.000
 00141,0.00000036,0.00000129,-0.00000960,0.00000129,0.00000163,0.000001
 01,-0.00000813,-0.00003675,0.00009195,0.00010807,-0.00000649,0.0000661
 1,-0.00001833,0.00000228,-0.00000851,-0.00000048,0.00021446,-0.0000518
 0,-0.00016536,-0.00022675,-0.00001339,0.00287397,-0.00007244,-0.000141
 63,-0.00043053,0.00056985,0.00015142,0.00327364,0.00043134,-0.00557769
 ,0.00209352,0.00125323,-0.01251430,-0.01749325,0.00164414,-0.00357738,
 0.00337745,-0.00003181,0.00002815,-0.00032759,0.00012500,-0.00015610,0
 .00012660,-0.00014507,0.00016006,-0.00189308,-0.00350828,0.02098286,0.
 01018043,-0.00065530,0.00547516,-0.00109483,-0.00089370,-0.00122294,0.
 00033998,-0.00050766,0.00121965,-0.00070528,0.00137203,-0.00039763,0.0
 0163049,-0.00214295,-0.00248109,-0.00087649,0.00856246,-0.00313805,-0.
 00107937,0.00001590,0.00005899,0.00012732,-0.00002775,-0.00010352,-0.0
 0019297,0.00218647,0.00145771,0.00188029,0.00005094,0.00015164,0.00017
 625,0.00046410,-0.04744794,-0.00842074,-0.00032361,-0.00388335,-0.0003
 5524,-0.00018096,-0.00007592,0.00022895,-0.02626596,-0.01165530,0.0006
 1775,-0.00645878,0.02780608,0.00524267,-0.00807878,-0.00227007,0.00105
 010,0.00427490,0.01233310,0.00122677,0.01005349,-0.01333764,-0.0022286
 6,-0.06707080,0.01042224,0.00767045,-0.26627936,0.08754720,0.03002101,
 -0.00066811,0.00054363,0.00019678,-0.00319211,0.00103459,0.00036034,-0
 .00104760,0.00055544,0.00020529,0.00068441,0.00047662,-0.00014415,0.47
 731959,-0.00004059,-0.00255806,0.00102604,0.00042702,0.00112244,-0.000
 22114,0.00060151,-0.00082201,0.00046596,-0.00136461,-0.00060198,0.0006
 9265,-0.00152902,-0.00013320,-0.00085749,0.00669173,-0.00536406,-0.001
 37163,-0.00017667,-0.00000275,-0.00002547,-0.00007142,-0.00006763,-0.0
 0012468,-0.00041500,-0.00131801,-0.00040769,0.00006579,0.00010917,-0.0
 0012938,-0.02648532,-0.03776512,-0.00577140,-0.00050234,0.00229957,-0.
 00055822,0.00002364,-0.00011127,-0.00005910,-0.00227902,0.00180844,0.0
 0108256,0.04355321,-0.01895601,-0.00803244,-0.00619029,-0.00475157,-0.
 00086946,0.00170258,0.00277921,0.00035684,-0.00199132,-0.00606126,-0.0
 0134648,-0.02484129,0.01442517,0.00321784,0.05736113,-0.12858417,-0.01
 452913,0.00121081,-0.00039962,-0.00022511,0.00076666,-0.00005692,-0.00
 000517,-0.00095558,0.00063084,0.00015334,-0.00349129,0.00162734,0.0007
 2759,0.04291762,0.35525768,0.00006818,0.00052979,-0.00045953,-0.000194
 43,-0.00030260,0.00006128,0.00000298,0.00015254,-0.00005059,0.00002314
 ,-0.00029374,0.00009347,-0.00044314,0.00010838,-0.00014806,0.00022512,
 -0.00119685,0.00107068,0.00000408,-0.00000631,-0.00003830,-0.00001973,
 -0.00000388,0.00001017,0.00102516,0.00018637,-0.00082600,0.00006298,-0
 .00004638,-0.00006444,-0.00353462,-0.00195558,0.00726668,0.00019603,-0
 .00012015,0.00107199,-0.00001275,-0.00010272,-0.00015176,0.00196786,0.
 00196691,-0.00281884,0.00715942,-0.00665491,0.00989668,0.00050234,-0.0
 0132627,0.00555857,-0.00034038,-0.00056099,-0.00071883,-0.00057986,-0.
 00014202,0.00399544,0.00288613,0.00004032,0.00523176,0.02887275,-0.017
 87840,-0.05323456,0.00024624,-0.00014697,0.00019861,0.00030523,-0.0000
 1887,-0.00049649,-0.00001886,0.00001481,0.00009596,-0.00065702,0.00046
 047,-0.00154569,-0.03773497,0.03291195,0.05295746,-0.00070191,0.000647
 96,-0.00068536,0.00020878,0.00030728,-0.00002115,0.00036836,-0.0004026
 7,0.00012206,-0.00039776,-0.00034605,-0.00004638,-0.00018395,0.0001253
 2,-0.00014646,0.00405524,0.00187711,-0.00081925,-0.00000948,-0.0000222
 1,0.00005324,0.00004021,0.00000097,0.00004985,0.00024455,-0.00016321,0
 .00042200,-0.00050085,-0.00060045,0.00130510,-0.01105965,0.03906431,0.
 00836459,-0.00009936,-0.00061433,-0.00007475,-0.00009342,-0.00006401,0
 .00003259,-0.06520013,0.03184354,0.00521618,0.00448029,-0.02442219,-0.
 00286735,0.00142655,-0.00173471,-0.00057048,-0.00006375,0.00029191,0.0
 0007767,0.00004530,-0.00010913,-0.00001411,0.00065884,-0.00082614,-0.0
 0026620,-0.00463505,-0.00151689,0.00044651,-0.00042274,0.00080566,0.00
 016923,-0.00005482,0.00005206,0.00000872,-0.00000356,0.00002889,0.0000
 1183,-0.00014243,-0.00037636,-0.00004114,0.00213410,0.00172570,0.00001
 541,0.07288937,0.00059881,-0.00040134,0.00005569,-0.00000661,-0.000029
 50,-0.00009611,0.00009188,0.00004284,-0.00006806,-0.00059108,-0.000048
 83,-0.00036842,0.00129595,0.00066215,0.00092292,-0.00325904,0.00080701
 ,0.00165328,0.00002144,0.00001567,-0.00001190,-0.00001795,-0.00000661,
 0.00006104,-0.00014487,0.00006566,-0.00022633,-0.00123318,0.00026384,0
 .00008266,0.00684145,-0.01076185,-0.00417614,-0.00007911,0.00033830,0.
 00012416,0.00005726,0.00000014,-0.00006782,0.03462384,-0.30778401,-0.0
 4181947,0.00738559,-0.01356954,-0.00303595,0.00105291,0.00060020,0.000
 25372,-0.00011103,-0.00000454,-0.00000002,0.00004636,0.00034780,0.0000
 5778,-0.00005038,-0.00069891,-0.00014324,-0.00274309,-0.00021187,-0.00
 009157,-0.00111899,0.00062796,0.00013370,-0.00016394,0.00007103,0.0000
 2468,-0.00002650,0.00004430,0.00000134,-0.00003605,-0.00021967,-0.0000
 1411,-0.00071134,-0.00032504,0.00016795,-0.04256035,0.32747876,-0.0014
 9178,-0.00149484,0.00065946,0.00055159,0.00103863,0.00011314,0.0002288
 9,-0.00109790,0.00040262,-0.00124848,0.00108844,-0.00034477,0.00230067
 ,-0.00122046,-0.00015134,-0.00000262,0.00212652,-0.00810969,0.00000192
 ,0.00001630,-0.00001596,-0.00000337,-0.00002099,-0.00009995,-0.0003758
 0,0.00040428,-0.00011659,0.00066102,0.00110380,-0.00022644,0.00182930,
 -0.00647935,0.02107680,0.00064094,0.00042421,-0.00047910,0.00006685,0.
 00014284,0.00011442,0.00625255,-0.04111587,-0.05687936,0.00134345,-0.0
 0128950,0.00769103,-0.00003407,0.00046799,-0.00185103,0.00000339,-0.00
 012206,0.00002148,-0.00007550,0.00007933,0.00003605,-0.00000839,0.0001
 3316,-0.00076854,0.00002475,-0.00026530,0.00322994,-0.00011571,-0.0000
 4956,0.00033308,-0.00004514,0.00002038,-0.00000348,0.00000654,-0.00001
 247,0.00011467,-0.00001103,-0.00002771,-0.00005922,0.00000822,0.000081
 33,-0.00110736,-0.01063900,0.04648843,0.03334323,0.00010745,-0.0037709
 1,0.00041268,0.00050982,0.00071140,-0.00008294,0.00009123,-0.00051817,
 0.00030799,-0.00024425,0.00035822,-0.00066336,0.00038212,0.00086921,0.
 00054456,-0.00466160,-0.00314021,0.00005663,0.00006672,-0.00002913,-0.
 00007637,0.00005487,0.00006784,0.00005993,-0.00211309,0.00035359,-0.00
 381486,-0.00005904,-0.00008712,-0.00012658,-0.01823740,0.01732583,0.00
 473768,0.00070630,0.00212099,0.00111024,0.00023445,0.00043135,-0.00004
 052,0.01263753,0.01647220,0.00104747,-0.00401724,-0.00568942,-0.000184
 50,0.00260259,-0.00165120,-0.00063292,-0.00099935,-0.00323176,-0.00030
 231,-0.00305829,0.00161906,0.00053188,0.00492246,0.00448189,0.00074934
 ,-0.05998646,-0.01801286,0.00410234,0.00057213,-0.00038980,-0.00011410
 ,0.00074450,-0.00019572,-0.00009631,-0.00002486,0.00016981,-0.00003786
 ,-0.00033443,-0.00030363,-0.00000544,-0.12332495,-0.08671360,-0.000027
 26,-0.00298273,0.00083803,0.00013083,0.19641158,0.00040851,0.00158115,
 -0.00106039,-0.00025558,-0.00128820,0.00025643,-0.00049066,0.00070388,
 -0.00031129,0.00107367,0.00075776,-0.00121751,0.00256771,0.00176078,0.
 00078306,-0.01132809,0.00450086,0.00153902,0.00023311,0.00000003,-0.00
 003141,0.00010012,0.00010269,0.00021681,0.00022762,0.00286858,0.000145
 90,-0.00005669,-0.00026338,0.00001151,0.00995498,0.01671281,0.00931776
 ,0.00098253,-0.00240474,0.00089347,0.00014786,0.00023659,0.00006300,0.
 02527650,-0.00351656,-0.00412902,-0.00368406,-0.00999037,-0.00046133,0
 .00508851,-0.00100696,-0.00052310,-0.00236691,-0.00677855,-0.00077356,
 -0.00409569,0.00593344,0.00107261,0.01586937,-0.00054368,-0.00159620,-
 0.01033986,0.02588242,0.00395268,0.00054312,-0.00025672,-0.00010144,0.
 00065447,-0.00024814,-0.00008678,0.00046103,-0.00010652,-0.00007168,-0
 .00059876,-0.00101567,-0.00008361,-0.10527493,-0.17218111,-0.00578285,
 -0.00301202,0.00269606,-0.00041963,0.07791415,0.13586357,0.00005064,-0
 .00124951,0.00072093,0.00032087,0.00047683,-0.00022462,-0.00002385,-0.
 00007208,0.00004597,0.00013554,0.00025419,-0.00042350,0.00072843,0.000
 28934,0.00064046,-0.00040200,0.00264852,0.00057589,-0.00001475,-0.0000
 1121,0.00003830,0.00002502,0.00004506,0.00004958,-0.00315298,0.0000344
 7,-0.00051192,-0.00016504,0.00001973,0.00003413,0.00058874,0.00338715,
 -0.01928244,0.00009806,0.00019713,-0.00095980,0.00019524,0.00039191,0.
 00016300,0.00364948,-0.00256367,0.00222866,-0.00046865,-0.00095292,-0.
 00145242,0.00042553,0.00020602,-0.00098115,-0.00019842,-0.00084317,0.0
 0020251,-0.00038713,0.00057456,0.00117979,0.00201493,-0.00073477,0.003
 00075,0.00234690,0.00578496,-0.00013688,0.00003708,0.00000146,0.000093
 30,0.00005899,-0.00002602,-0.00006471,0.00003349,0.00000251,-0.0001881
 7,-0.00005659,-0.00016775,-0.00010389,0.00185002,-0.00618209,-0.025848
 29,-0.00010334,0.00009181,0.00307693,-0.00758622,-0.00160245,0.0381275
 9\\-0.00000651,-0.00001806,-0.00002417,-0.00001765,0.00001700,-0.00000
 233,-0.00002121,-0.00002869,0.00001366,-0.00001504,-0.00000195,0.00000
 006,0.00003397,-0.00000931,0.00002057,0.00004176,0.00001488,0.00000755
 ,-0.00000609,0.00000280,-0.00000065,-0.00000955,0.00000906,-0.00000133
 ,0.00001382,0.00001452,-0.00001448,0.00000877,0.00000918,-0.00000183,-
 0.00003047,-0.00001509,0.00000901,-0.00000324,0.00001392,0.00003603,-0
 .00001128,0.00000881,-0.00002498,-0.00004118,-0.00000324,-0.00004117,0
 .00003741,-0.00000329,0.00001099,-0.00003614,0.00000998,0.00000834,0.0
 0006509,-0.00002671,-0.00000866,-0.00002133,0.00000620,0.00000284,0.00
 000553,0.00000395,-0.00000467,0.00001220,0.,-0.00000263,-0.00000147,-0
 .00001123,0.00000290,-0.00000668,-0.00000106,0.00000271,0.00000824,0.0
 0000109,-0.00000235,0.00000150,0.00000873,-0.00000467,-0.00006660,-0.0
 0005500,-0.00000282,0.00001071,-0.00001374,0.00002087,0.00005543,0.000
 06724,0.00000121\\\@


      SCIENCE SANS CONSCIENCE N'EST QUE RUINE DE L'AME.

                                                  -- RABELAIS
 Job cpu time:       0 days  0 hours 16 minutes 31.9 seconds.
 File lengths (MBytes):  RWF=    130 Int=      0 D2E=      0 Chk=      4 Scr=      1
 Normal termination of Gaussian 09 at Sun Nov 16 16:10:24 2025.
